<?xml version="1.0"?>
<VTKFile type="PolyData" version="0.1" byte_order="LittleEndian" compressor="vtkZLibDataCompressor">
	<PolyData>
		<Piece NumberOfPoints="16849" NumberOfVerts="0" NumberOfLines="0" NumberOfStrips="0" NumberOfPolys="33734">
		<PointData Normals="Normals">
		<DataArray type="Float32" Name="Normals" NumberOfComponents="3" format="ascii">
			-0.581882  0.512767  0.631201
			-0.539468  0.536269  0.649121
			-0.942374  0.334507 -0.000351
			-0.787680  0.042369  0.614589
			-0.611462  0.705087  0.359080
			-0.940911  0.338528 -0.006143
			-0.942242  0.334814 -0.005916
			-0.949986  0.053881  0.307483
			-0.940010  0.341034 -0.006512
			-0.941596  0.336566 -0.007875
			-0.942132  0.335114 -0.006186
			-0.956568 -0.254043  0.142685
			-0.433265  0.897010  0.087359
			-0.941208  0.337610 -0.009330
			-0.941579  0.336575 -0.009326
			-0.942930  0.332819 -0.008530
			-0.940008  0.340927 -0.010722
			-0.941353  0.337161 -0.010997
			-0.941697  0.336202 -0.010922
			-0.913179 -0.160489 -0.374552
			-0.941038  0.337963 -0.013878
			-0.941244  0.337377 -0.014214
			-0.910396  0.139564 -0.389468
			-0.939576  0.340565 -0.034577
			-0.918168  0.239233 -0.315723
			-0.947356  0.249688  0.200273
			-0.899108  0.410489  0.151804
			-0.955089  0.036462  0.293959
			-0.825028  0.539041  0.169360
			-0.892979  0.316941  0.319469
			-0.914511 -0.116503  0.387322
			-0.700560  0.646524  0.301928
			-0.830993  0.475703  0.288298
			-0.799854 -0.076956  0.595201
			-0.790184  0.065300  0.609373
			-0.892015 -0.117335  0.436451
			-0.642940  0.669755  0.371468
			-0.808733 -0.148492  0.569053
			-0.858836  0.001019  0.512216
			-0.475794  0.870653  0.124668
			-0.936416 -0.161136  0.311666
			-0.474536  0.870825  0.128349
			-0.969959 -0.242654 -0.016370
			-0.252930  0.964492 -0.075596
			-0.966771 -0.247705 -0.062601
			-0.351476  0.918598 -0.180469
			-0.886208 -0.335192 -0.319709
			-0.287185  0.687383 -0.667069
			-0.828745 -0.003933 -0.559550
			-0.386371  0.510320 -0.768277
			-0.580773  0.301650 -0.756071
			-0.591478  0.069641 -0.803252
			-0.357963  0.335161 -0.871477
			-0.386316  0.028305 -0.921914
			-0.806958  0.233560  0.542449
			-0.899341  0.048701  0.434510
			-0.894206  0.385945  0.226703
			-0.929737  0.233947  0.284260
			-0.965609  0.027055  0.258530
			-0.747200  0.584654  0.315966
			-0.913782  0.352719  0.201337
			-0.968903  0.146317  0.199472
			-0.988337 -0.010778  0.151824
			-0.693726  0.680783  0.234954
			-0.879108  0.429883  0.205726
			-0.941612  0.250991  0.224395
			-0.987362  0.015850  0.157504
			-0.824366  0.547520  0.143481
			-0.886681  0.415777  0.202185
			-0.958441  0.091395  0.270166
			-0.989408  0.001270  0.144899
			-0.635925  0.768050 -0.075412
			-0.840234  0.514490  0.171090
			-0.941141 -0.053137  0.333731
			-0.938697  0.031398  0.343256
			-0.716065  0.653511  0.245197
			-0.880892 -0.033333  0.472108
			-0.856616  0.016310  0.515646
			-0.501940  0.864872  0.003349
			-0.799820  0.129459  0.586088
			-0.918537 -0.094454  0.383832
			-0.508096  0.847552  0.153092
			-0.914376 -0.154987  0.373973
			-0.952246 -0.193509  0.236035
			-0.436104  0.895657  0.087039
			-0.940920 -0.170894  0.292279
			-0.965427 -0.222413  0.135769
			-0.432298  0.901330  0.026706
			-0.976064 -0.198571 -0.088641
			-0.389680  0.881798 -0.265582
			-0.939683 -0.241616 -0.242015
			-0.806626 -0.337034 -0.485478
			-0.274373  0.905514 -0.323633
			-0.855503 -0.333703 -0.395849
			-0.126443  0.827173 -0.547508
			-0.778330 -0.308043 -0.547072
			-0.171735  0.629277 -0.757954
			 0.053399  0.122310 -0.991054
			 0.053399  0.122310 -0.991054
			-0.577635  0.006875 -0.816246
			-0.010634  0.249630 -0.968257
			 0.053399  0.122310 -0.991054
			-0.277623  0.229811 -0.932781
			-0.705074  0.152546  0.692513
			-0.751683 -0.085921  0.653861
			-0.430077  0.451158  0.781961
			-0.663294  0.187772  0.724367
			-0.738788  0.118089  0.663489
			-0.810209 -0.261730  0.524415
			-0.445992  0.618600  0.646822
			-0.672614  0.233845  0.702055
			-0.751642  0.106048  0.650937
			-0.928765  0.038799  0.368608
			-0.414527  0.714114  0.564064
			-0.643259  0.589234  0.488843
			-0.970830 -0.058179  0.232463
			-0.667251  0.667233  0.330939
			-0.980412 -0.028366  0.194801
			-0.642345  0.732050  0.226856
			-0.991642  0.013477  0.128062
			-0.940829 -0.198612  0.274454
			-0.235907  0.918383  0.317601
			-0.694637  0.717502  0.051122
			-0.962583  0.055194  0.265162
			-0.874980 -0.055606  0.480938
			-0.657871  0.749926 -0.069306
			-0.921719  0.009733  0.387690
			-0.910493 -0.106516  0.399487
			-0.580991  0.792189 -0.186682
			-0.603822  0.786197 -0.131318
			-0.894439 -0.083663  0.439245
			-0.912426 -0.253467  0.321240
			-0.563605  0.802609 -0.195266
			-0.931956 -0.135567  0.336191
			-0.853167 -0.336494  0.398541
			-0.447954  0.892876  0.045504
			-0.940345 -0.215159  0.263458
			-0.399704  0.916603  0.005727
			-0.919428 -0.393029 -0.011329
			-0.401512  0.915583  0.020922
			-0.873202 -0.368374 -0.319037
			-0.165342  0.924551 -0.343258
			-0.679656 -0.467371 -0.565324
			-0.197674  0.806506 -0.557146
			-0.568810 -0.504210 -0.649766
			-0.011750  0.755178 -0.655375
			 0.053399  0.122310 -0.991054
			-0.363591  0.257281 -0.895296
			-0.032652  0.152508 -0.987736
			-0.385431 -0.315858 -0.866970
			-0.003996  0.252137 -0.967651
			-0.134189  0.209586 -0.968505
			-0.219406  0.203082 -0.954253
			 0.006155  0.101488 -0.994818
			-0.360872  0.481113  0.798911
			-0.470043  0.041803  0.881620
			-0.611396 -0.246099  0.752070
			-0.257250  0.321825  0.911156
			-0.470032  0.076470  0.879310
			-0.481659  0.045083  0.875183
			-0.678966 -0.361847  0.638761
			-0.180222  0.504762  0.844196
			-0.380012  0.373898  0.846007
			-0.736921 -0.401454  0.543823
			-0.041414  0.675672  0.736014
			-0.755119 -0.407877  0.513191
			-0.765712 -0.412978  0.493041
			-0.204489  0.768226  0.606588
			-0.833174 -0.397328  0.384573
			-0.120352  0.892740  0.434148
			-0.794333 -0.147862  0.589179
			-0.746611 -0.266640  0.609441
			-0.881825 -0.038880  0.469920
			-0.246382  0.960686  0.127899
			-0.936148 -0.192504  0.294127
			-0.881302 -0.418600  0.219141
			-0.432031  0.882029 -0.187870
			-0.778844 -0.619167  0.099793
			-0.510740  0.847027 -0.147109
			-0.834317 -0.546583  0.071455
			-0.080736  0.938781 -0.334824
			-0.726674 -0.584037 -0.361632
			-0.273955  0.958128 -0.083124
			-0.725970 -0.558478 -0.401253
			-0.142497  0.907117 -0.395952
			-0.644146 -0.622872 -0.443921
			-0.742306 -0.340832 -0.576866
			 0.000839  0.816898 -0.576730
			-0.621595 -0.308655 -0.719914
			-0.118660  0.604757 -0.787473
			 0.068026  0.163376 -0.984189
			-0.071130  0.065636 -0.995294
			-0.328014 -0.377372 -0.865978
			 0.048108  0.484254 -0.873577
			-0.115627  0.451488 -0.884748
			-0.609995  0.344533 -0.713566
			-0.440306 -0.100639 -0.892142
			-0.073308 -0.130070 -0.988758
			-0.255279  0.570794 -0.780359
			-0.501301  0.163164 -0.849723
			-0.361756  0.318379 -0.876215
			-0.246828  0.483977  0.839525
			-0.053399 -0.122310  0.991054
			-0.053399 -0.122310  0.991054
			-0.498848 -0.312741  0.808281
			-0.143620  0.098650  0.984675
			-0.053399 -0.122310  0.991054
			-0.181866 -0.181463  0.966429
			-0.544895 -0.537571  0.643469
			-0.054172  0.516432  0.854577
			-0.630166 -0.410706  0.658921
			-0.011685  0.550216  0.834922
			-0.756168 -0.408247  0.511353
			 0.016967  0.709040  0.704935
			-0.758210 -0.418266  0.500108
			-0.755324 -0.135208  0.641205
			 0.083108  0.759775  0.644824
			-0.778338 -0.141047  0.611749
			-0.753294 -0.330687  0.568474
			-0.744012 -0.102156  0.660273
			-0.749356 -0.406139  0.522959
			 0.234780  0.940880  0.244109
			-0.763466 -0.400666  0.506477
			-0.819416 -0.458102  0.344455
			 0.321250  0.939203  0.120950
			-0.811982 -0.565169  0.145729
			 0.025914  0.969787 -0.242552
			-0.814357 -0.573389 -0.089477
			-0.043926  0.962108 -0.269077
			-0.762814 -0.547024 -0.344723
			 0.075542  0.917363 -0.390759
			-0.875727 -0.387756 -0.287602
			 0.138915  0.813697 -0.564388
			-0.610134 -0.539041 -0.580614
			-0.543494 -0.452441 -0.707025
			 0.063413  0.731676 -0.678664
			-0.265908  0.716365 -0.645041
			 0.025412  0.175158 -0.984184
			-0.078303  0.064720 -0.994825
			-0.543671 -0.246079 -0.802367
			-0.056546  0.593688 -0.802676
			-0.117159  0.458922 -0.880694
			-0.429545 -0.116457 -0.895471
			-0.308597 -0.053657 -0.949657
			-0.188873  0.586996 -0.787212
			 0.042539  0.144895 -0.988509
			-0.273310 -0.036536 -0.961191
			 0.009943  0.201544 -0.979420
			 0.053399  0.122310 -0.991054
			-0.031646 -0.061339  0.997602
			-0.053399 -0.122310  0.991054
			-0.053399 -0.122310  0.991054
			 0.105597  0.320684  0.941252
			-0.052961 -0.121083  0.991199
			-0.053399 -0.122310  0.991054
			-0.200573 -0.349776  0.915105
			 0.101560  0.309516  0.945458
			-0.481650 -0.491512  0.725534
			-0.606472 -0.336046  0.720549
			 0.179453  0.524137  0.832477
			-0.469887 -0.299027  0.830514
			-0.739146 -0.402677  0.539859
			-0.638316 -0.336099  0.692501
			 0.257523  0.736689  0.625259
			-0.771908 -0.218645  0.596908
			-0.534062 -0.547436  0.644258
			-0.539841 -0.588761  0.601543
			 0.299105  0.847809  0.437834
			-0.572410 -0.685691  0.449589
			 0.332753  0.933567  0.133144
			-0.647960 -0.695309  0.310857
			-0.690325 -0.695711  0.198440
			 0.332753  0.933567  0.133144
			-0.861683 -0.507164 -0.015402
			-0.636809 -0.765741 -0.089745
			 0.071986  0.964282 -0.254804
			-0.887152 -0.441138 -0.135379
			-0.718700 -0.596963 -0.356420
			 0.117427  0.881395 -0.457519
			-0.600307 -0.495143 -0.628014
			 0.262970  0.750945 -0.605749
			-0.483519 -0.589415 -0.647109
			 0.273316  0.747388 -0.605539
			 0.178285  0.474844 -0.861801
			-0.084099  0.059360 -0.994658
			-0.499384 -0.493863 -0.711818
			 0.099585  0.446355 -0.889264
			-0.428844 -0.114337 -0.896090
			-0.351814 -0.115454 -0.928907
			 0.030158  0.538845 -0.841824
			 0.043528  0.142844 -0.988770
			 0.053399  0.122310 -0.991054
			-0.272480 -0.033663 -0.961549
			 0.014934  0.196528 -0.980375
			 0.053399  0.122310 -0.991054
			 0.053399  0.122310 -0.991054
			 0.128266  0.383316  0.914634
			-0.053399 -0.122310  0.991054
			-0.053399 -0.122310  0.991054
			-0.053399 -0.122310  0.991054
			-0.034660 -0.069780  0.996943
			-0.053399 -0.122310  0.991054
			-0.053399 -0.122310  0.991054
			-0.387723 -0.268822  0.881674
			 0.209303  0.540033  0.815180
			-0.581478 -0.349010  0.734866
			-0.589009 -0.372980  0.716871
			 0.286937  0.465831  0.837035
			-0.470425 -0.301573  0.829283
			 0.400960  0.564224  0.721687
			-0.616595 -0.523239  0.588179
			 0.244174  0.661932  0.708649
			-0.589747 -0.587242  0.554362
			-0.528111 -0.660345  0.533838
			 0.331357  0.930316  0.157106
			-0.485656 -0.735167  0.472879
			-0.551555 -0.771627  0.316784
			 0.332753  0.933567  0.133144
			-0.410997 -0.910324 -0.048220
			 0.396908  0.916011  0.058131
			-0.365965 -0.916803 -0.159725
			 0.477636  0.786001 -0.392430
			 0.315210  0.742418 -0.591121
			-0.531533 -0.728676 -0.431810
			 0.262931  0.717288 -0.645220
			-0.510908 -0.479071 -0.713732
			-0.333883 -0.569584 -0.751023
			 0.273578  0.748151 -0.604483
			 0.189034  0.505425 -0.841868
			-0.059433 -0.192708 -0.979445
			 0.195253  0.523141 -0.829539
			 0.191532  0.512539 -0.837011
			-0.204807 -0.224513 -0.952669
			 0.069002  0.176555 -0.981844
			 0.053399  0.122310 -0.991054
			 0.053399  0.122310 -0.991054
			-0.232144 -0.134970 -0.963241
			 0.053399  0.122310 -0.991054
			 0.053399  0.122310 -0.991054
			 0.053399  0.122310 -0.991054
			 0.032572 -0.084149  0.995916
			-0.053399 -0.122310  0.991054
			-0.053399 -0.122310  0.991054
			-0.053399 -0.122310  0.991054
			 0.281177  0.248752  0.926820
			-0.041234 -0.116745  0.992306
			-0.053399 -0.122310  0.991054
			-0.053399 -0.122310  0.991054
			-0.342806 -0.406101  0.847072
			 0.292851  0.488361  0.822002
			-0.413844 -0.446634  0.793209
			-0.491899 -0.528974  0.691531
			 0.194709  0.565921  0.801121
			-0.404453 -0.338175  0.849702
			-0.738244 -0.402342  0.541341
			 0.355157  0.598808  0.717816
			-0.549381 -0.603266  0.578080
			-0.573105 -0.645126  0.505322
			 0.474435  0.684751  0.553154
			-0.422011 -0.849378  0.316852
			 0.333439  0.933189  0.133861
			-0.307498 -0.847621  0.432406
			-0.335635 -0.934866  0.115548
			 0.334222  0.936846  0.102731
			-0.332753 -0.933567 -0.133144
			 0.513396  0.804035 -0.299866
			 0.505569  0.819035 -0.271163
			-0.327510 -0.921021 -0.210713
			 0.303827  0.802787 -0.513017
			-0.248185 -0.711465 -0.657372
			 0.273352  0.747494 -0.605393
			-0.192678 -0.560364 -0.805502
			 0.178285  0.474844 -0.861801
			-0.173987 -0.509144 -0.842884
			 0.188234  0.503147 -0.843424
			-0.046007 -0.155383 -0.986759
			-0.076455 -0.239961 -0.967749
			 0.192722  0.496977 -0.846082
			 0.053710  0.123184 -0.990900
			 0.053399  0.122310 -0.991054
			 0.052129  0.118749 -0.991532
			-0.134825 -0.401408 -0.905899
			 0.072608  0.176250 -0.981657
			 0.053399  0.122310 -0.991054
			 0.053399  0.122310 -0.991054
			-0.030458 -0.058013  0.997824
			-0.053399 -0.122310  0.991054
			-0.053399 -0.122310  0.991054
			-0.170944 -0.453985  0.874447
			 0.156196  0.186460  0.969943
			-0.052898 -0.120906  0.991224
			-0.053399 -0.122310  0.991054
			-0.055746 -0.128897  0.990085
			-0.193194 -0.517272  0.833714
			 0.356357  0.248789  0.900605
			-0.204077 -0.548306  0.810984
			 0.302282  0.459070  0.835353
			-0.259001 -0.705925  0.659225
			 0.415621  0.641316  0.644932
			-0.276584 -0.756889  0.592072
			 0.589695  0.608220  0.531323
			-0.319332 -0.883106  0.343670
			 0.634357  0.514269  0.577127
			 0.576196  0.659790  0.482342
			-0.311166 -0.858551  0.407430
			-0.324594 -0.899175  0.293444
			 0.365463  0.915380  0.168856
			-0.334818 -0.938121 -0.088320
			 0.324093  0.897637 -0.298605
			-0.332115 -0.932091 -0.144410
			 0.319937  0.884940 -0.338366
			 0.313703  0.866143 -0.389041
			-0.294890 -0.836672 -0.461488
			 0.263900  0.720093 -0.641704
			-0.207099 -0.599780 -0.772861
			-0.192475 -0.559808 -0.805927
			 0.273578  0.748151 -0.604483
			 0.189034  0.505425 -0.841868
			-0.059433 -0.192708 -0.979445
			 0.195253  0.523141 -0.829539
			 0.191532  0.512539 -0.837011
			-0.109894 -0.332567 -0.936643
			 0.069002  0.176555 -0.981844
			 0.053399  0.122310 -0.991054
			 0.053399  0.122310 -0.991054
			-0.016436 -0.073025 -0.997170
			 0.053399  0.122310 -0.991054
			 0.053399  0.122310 -0.991054
			 0.053399  0.122310 -0.991054
			 0.120496  0.361865  0.924403
			-0.053399 -0.122310  0.991054
			-0.053399 -0.122310  0.991054
			-0.053399 -0.122310  0.991054
			 0.119531  0.204874  0.971441
			-0.034250 -0.068632  0.997036
			-0.053399 -0.122310  0.991054
			-0.053399 -0.122310  0.991054
			-0.168097 -0.445899  0.879130
			 0.485556  0.397923  0.778341
			 0.191646  0.484750  0.853377
			-0.207465 -0.557978  0.803453
			-0.236126 -0.640042  0.731118
			-0.166188 -0.440483  0.882202
			 0.571490  0.486476  0.660839
			-0.266376 -0.727262  0.632513
			 0.417518  0.658368  0.626232
			-0.284374 -0.779586  0.557985
			-0.324639 -0.899314  0.292950
			 0.572142  0.633103  0.521340
			 0.719475  0.590104  0.366150
			-0.180242 -0.920538  0.346545
			-0.179620 -0.972773  0.146298
			 0.745878  0.659601  0.092421
			-0.325173 -0.936217 -0.133063
			 0.546711  0.772494 -0.322992
			 0.583775  0.751540 -0.307154
			-0.177545 -0.946534 -0.269320
			 0.110354 -0.892846 -0.436587
			 0.528693  0.733406 -0.427268
			-0.051192 -0.785149 -0.617125
			 0.300360  0.738913 -0.603110
			-0.088211 -0.612200 -0.785747
			 0.443378  0.510312 -0.736840
			-0.173987 -0.509144 -0.842884
			 0.297815  0.399687 -0.866906
			-0.046007 -0.155383 -0.986759
			-0.076455 -0.239961 -0.967749
			 0.413119  0.473038 -0.778174
			 0.074014  0.131936 -0.988473
			 0.053399  0.122310 -0.991054
			 0.052129  0.118749 -0.991532
			-0.134825 -0.401408 -0.905899
			 0.130023  0.155347 -0.979257
			 0.053399  0.122310 -0.991054
			 0.053399  0.122310 -0.991054
			 0.040122 -0.083060  0.995700
			-0.053399 -0.122310  0.991054
			-0.053399 -0.122310  0.991054
			-0.170944 -0.453985  0.874447
			 0.286883  0.241432  0.927011
			-0.040165 -0.116100  0.992403
			-0.053399 -0.122310  0.991054
			-0.055746 -0.128897  0.990085
			-0.193194 -0.517272  0.833714
			 0.319231  0.460677  0.828140
			-0.204077 -0.548306  0.810984
			 0.286539  0.551482  0.783421
			-0.259001 -0.705925  0.659225
			 0.234050  0.597932  0.766609
			-0.173320 -0.832617  0.526023
			-0.085626 -0.933333  0.348580
			 0.301679  0.843569  0.444230
			-0.125465 -0.985929  0.110258
			 0.492498  0.855197  0.161371
			 0.857895  0.477475  0.189627
			-0.071374 -0.943648  0.323102
			 0.571884  0.810525  0.126212
			-0.261509 -0.953353  0.150720
			 0.828799  0.558245 -0.037137
			 0.475118  0.865004 -0.161304
			-0.279919 -0.910238 -0.305067
			-0.051111 -0.835157 -0.547586
			 0.477557  0.803278 -0.355874
			 0.635197  0.644843 -0.425013
			-0.015672 -0.832574 -0.553621
			 0.600061  0.422218 -0.679424
			-0.217488 -0.633016 -0.742934
			 0.223539  0.423159 -0.878001
			-0.160785 -0.177670 -0.970841
			 0.373738  0.510281 -0.774529
			-0.329361 -0.229797 -0.915796
			 0.318850  0.456009 -0.830852
			 0.053710  0.123184 -0.990900
			 0.053399  0.122310 -0.991054
			-0.017899 -0.041452 -0.998962
			 0.073668  0.179229 -0.981010
			 0.053399  0.122310 -0.991054
			 0.053399  0.122310 -0.991054
			-0.028271 -0.051889  0.998234
			-0.053399 -0.122310  0.991054
			-0.053399 -0.122310  0.991054
			 0.157552  0.187892  0.969436
			-0.052898 -0.120906  0.991224
			-0.053399 -0.122310  0.991054
			-0.168097 -0.445899  0.879130
			 0.351538  0.247166  0.902920
			-0.207465 -0.557978  0.803453
			-0.236126 -0.640042  0.731118
			 0.139031  0.413002  0.900019
			-0.166188 -0.440483  0.882202
			 0.223351  0.572523  0.788848
			-0.297074 -0.816805  0.494467
			 0.431879  0.651852  0.623336
			-0.088493 -0.935080  0.343135
			 0.032076 -0.968991  0.244886
			 0.412368  0.877467  0.244914
			-0.170226 -0.932971  0.317136
			-0.509489 -0.797790  0.322320
			 0.332753  0.933567  0.133144
			-0.510167 -0.812152  0.282985
			 0.333386  0.935001  0.120833
			-0.342250 -0.934696 -0.095866
			 0.300584  0.827147 -0.474808
			-0.264680 -0.755968 -0.598671
			 0.414128  0.737302 -0.533731
			-0.263290 -0.752227 -0.603967
			 0.359101  0.661313 -0.658551
			-0.273337 -0.779222 -0.563977
			 0.297595  0.729719 -0.615554
			 0.188465  0.503804 -0.842977
			-0.214867 -0.577102 -0.787857
			 0.188437  0.503725 -0.843029
			 0.192359  0.514894 -0.835385
			-0.294469 -0.421046 -0.857866
			 0.076539  0.187301 -0.979294
			 0.053399  0.122310 -0.991054
			 0.053399  0.122310 -0.991054
			-0.231782 -0.131746 -0.963772
			 0.053399  0.122310 -0.991054
			 0.053399  0.122310 -0.991054
			 0.053399  0.122310 -0.991054
			 0.477247  0.202309  0.855128
			-0.053399 -0.122310  0.991054
			-0.053399 -0.122310  0.991054
			-0.170944 -0.453985  0.874447
			 0.121040  0.200858  0.972096
			 0.161503 -0.006333  0.986837
			-0.053399 -0.122310  0.991054
			-0.055746 -0.128897  0.990085
			-0.193194 -0.517272  0.833714
			 0.363212  0.265426  0.893068
			 0.421785  0.199314  0.884503
			-0.204077 -0.548306  0.810984
			 0.565051  0.451943  0.690214
			-0.274710 -0.751440  0.599879
			-0.320794 -0.887546  0.330612
			 0.634915  0.467872  0.614748
			 0.653431  0.615973  0.439947
			-0.313454 -0.865395  0.390913
			-0.426549 -0.753946  0.499567
			 0.524340  0.765676  0.372481
			-0.551555 -0.771627  0.316784
			 0.332753  0.933567  0.133144
			-0.410997 -0.910324 -0.048220
			 0.320673  0.887177 -0.331703
			-0.315047 -0.889460 -0.331044
			-0.252623 -0.723463 -0.642443
			 0.286190  0.784890 -0.549544
			 0.271847  0.743124 -0.611402
			-0.288788 -0.820481 -0.493307
			 0.273595  0.748200 -0.604415
			-0.218944 -0.632079 -0.743310
			 0.180870  0.482193 -0.857153
			-0.198316 -0.575785 -0.793169
			 0.220823  0.404358 -0.887501
			 0.411190  0.474048 -0.778557
			 0.076075  0.132895 -0.988183
			 0.053399  0.122310 -0.991054
			 0.052189  0.118917 -0.991508
			-0.162152 -0.476642 -0.863996
			 0.137046  0.156065 -0.978184
			 0.053399  0.122310 -0.991054
			 0.053399  0.122310 -0.991054
			-0.044492 -0.151171 -0.987479
			 0.201441  0.334454  0.920619
			-0.053399 -0.122310  0.991054
			-0.053399 -0.122310  0.991054
			 0.339858  0.110732  0.933916
			-0.023621 -0.076306  0.996793
			-0.053399 -0.122310  0.991054
			-0.168097 -0.445899  0.879130
			 0.314482  0.259177  0.913192
			 0.306877  0.356122  0.882589
			-0.207465 -0.557978  0.803453
			-0.236126 -0.640042  0.731118
			 0.375673  0.456791  0.806334
			-0.166188 -0.440483  0.882202
			 0.423224  0.518033  0.743269
			-0.297074 -0.816805  0.494467
			-0.316580 -0.874788  0.366720
			 0.442569  0.731023  0.519319
			 0.644007  0.624734  0.441500
			-0.285742 -0.783582  0.551647
			-0.290290 -0.796884  0.529802
			 0.554852  0.678508  0.481423
			-0.335635 -0.934866  0.115548
			 0.396424  0.916164  0.058942
			-0.330499 -0.928282 -0.170431
			 0.478802  0.784873 -0.393293
			-0.264680 -0.755968 -0.598671
			 0.317172  0.743115 -0.589194
			-0.263290 -0.752227 -0.603967
			 0.264201  0.720964 -0.640602
			-0.273337 -0.779222 -0.563977
			 0.426232  0.603805 -0.673574
			 0.112444  0.147297 -0.982680
			 0.671065  0.378748 -0.637323
			-0.204577 -0.592895 -0.778848
			 0.513787  0.361549 -0.777993
			 0.396496  0.272519 -0.876648
			-0.174377 -0.510212 -0.842159
			 0.533593  0.329759 -0.778761
			 0.077105  0.133374 -0.988028
			 0.053399  0.122310 -0.991054
			-0.015576 -0.070626 -0.997362
			 0.142147  0.160895 -0.976657
			 0.053399  0.122310 -0.991054
			 0.053399  0.122310 -0.991054
			-0.027057 -0.048493  0.998426
			-0.053399 -0.122310  0.991054
			-0.170944 -0.453985  0.874447
			 0.111646  0.315181  0.942412
			-0.052835 -0.120728  0.991250
			-0.055746 -0.128897  0.990085
			-0.193194 -0.517272  0.833714
			 0.205872  0.314084  0.926790
			-0.004263 -0.552881  0.833233
			 0.545625  0.245366  0.801284
			-0.063114 -0.731948  0.678394
			 0.437603  0.459113  0.773097
			-0.285407 -0.892992  0.347961
			 0.551965  0.568466  0.610020
			-0.313454 -0.865395  0.390913
			 0.456604  0.833266  0.311646
			-0.279282 -0.764739  0.580626
			 0.586514  0.645501  0.489146
			-0.324594 -0.899175  0.293444
			 0.577482  0.648207  0.496278
			 0.570560  0.670902  0.473642
			-0.334818 -0.938121 -0.088320
			 0.556454  0.787886 -0.263749
			-0.315047 -0.889460 -0.331044
			 0.506040  0.817748 -0.274132
			-0.252623 -0.723463 -0.642443
			 0.303619  0.802178 -0.514082
			-0.288788 -0.820481 -0.493307
			 0.183711  0.444906 -0.876494
			-0.218944 -0.632079 -0.743310
			 0.392192  0.553768 -0.734487
			 0.069071  0.166311 -0.983640
			-0.198316 -0.575785 -0.793169
			 0.290401  0.399587 -0.869457
			 0.388698  0.269815 -0.880933
			 0.535142  0.330984 -0.777174
			 0.078489  0.133506 -0.987907
			 0.052189  0.118917 -0.991508
			-0.162152 -0.476642 -0.863996
			 0.146151  0.162758 -0.975768
			 0.053399  0.122310 -0.991054
			-0.044492 -0.151171 -0.987479
			 0.478549  0.233552  0.846411
			-0.053399 -0.122310  0.991054
			-0.053399 -0.122310  0.991054
			 0.161930 -0.003360  0.986783
			-0.053399 -0.122310  0.991054
			 0.000079 -0.506475  0.862241
			 0.430107  0.241379  0.869862
			-0.083787 -0.710146  0.699011
			 0.300998  0.459084  0.835830
			-0.058378 -0.682595  0.728411
			 0.481066  0.460836  0.745754
			 0.056182 -0.809644  0.584199
			 0.698603  0.373219  0.610413
			-0.208834 -0.890439  0.404336
			 0.677190  0.492506  0.546670
			-0.285742 -0.783582  0.551647
			 0.544600  0.739203  0.396167
			-0.290290 -0.796884  0.529802
			-0.335635 -0.934866  0.115548
			 0.585273  0.676877  0.446344
			 0.699812  0.713678  0.029957
			-0.330499 -0.928282 -0.170431
			 0.635953  0.757569 -0.147038
			 0.453167  0.866232 -0.210365
			-0.264680 -0.755968 -0.598671
			 0.315760  0.867666 -0.383980
			-0.263290 -0.752227 -0.603967
			 0.211109  0.568387 -0.795191
			 0.212527  0.572438 -0.791911
			-0.273337 -0.779222 -0.563977
			 0.174828  0.465018 -0.867862
			 0.053399  0.122310 -0.991054
			-0.204577 -0.592895 -0.778848
			 0.077330  0.189524 -0.978826
			 0.357492  0.458080 -0.813823
			-0.174377 -0.510212 -0.842159
			 0.327254  0.454511 -0.828435
			 0.053770  0.123352 -0.990876
			-0.015576 -0.070626 -0.997362
			 0.077997  0.191399 -0.978397
			 0.053399  0.122310 -0.991054
			 0.205863  0.335201  0.919345
			-0.053399 -0.122310  0.991054
			 0.389729  0.090085  0.916498
			-0.022923 -0.075748  0.996839
			-0.081959 -0.388543  0.917751
			 0.440218  0.287665  0.850520
			 0.340179  0.356653  0.870071
			-0.004097 -0.627487  0.778588
			-0.203186 -0.672715  0.711455
			 0.563395  0.456707  0.688443
			-0.086647 -0.465732  0.880658
			-0.175801 -0.724114  0.666852
			 0.610316  0.475419  0.633596
			-0.068032 -0.834830  0.546236
			 0.473514  0.548845  0.688826
			-0.224637 -0.789462  0.571145
			 0.406105  0.559682  0.722352
			-0.279282 -0.764739  0.580626
			-0.324594 -0.899175  0.293444
			 0.363063  0.848052  0.385945
			-0.334818 -0.938121 -0.088320
			 0.332513  0.933012  0.137411
			-0.315047 -0.889460 -0.331044
			 0.336243  0.940839  0.041742
			-0.252623 -0.723463 -0.642443
			 0.294438  0.809052 -0.508622
			-0.288788 -0.820481 -0.493307
			 0.167812  0.445091 -0.879589
			-0.218944 -0.632079 -0.743310
			 0.276852  0.465750 -0.840459
			 0.116415  0.149126 -0.981918
			 0.671065  0.378748 -0.637323
			 0.171773  0.456338 -0.873043
			-0.198316 -0.575785 -0.793169
			 0.510096  0.355154 -0.783330
			 0.063135  0.132028 -0.989199
			 0.194804  0.521860 -0.830478
			 0.079015  0.194263 -0.977737
			 0.052189  0.118917 -0.991508
			-0.162152 -0.476642 -0.863996
			 0.053399  0.122310 -0.991054
			-0.044492 -0.151171 -0.987479
			-0.025952 -0.045400  0.998614
			-0.172823 -0.459320  0.871266
			 0.137228  0.379693  0.914862
			-0.055184 -0.127319  0.990310
			-0.192098 -0.514150  0.835894
			 0.257347  0.521737  0.813331
			-0.206017 -0.553841  0.806725
			 0.380523  0.452830  0.806288
			-0.259349 -0.706931  0.657983
			 0.414719  0.496013  0.762857
			-0.272005 -0.743582  0.610802
			-0.267121 -0.729419  0.629745
			 0.313535  0.511435  0.800043
			 0.199826  0.579911  0.789754
			-0.273430 -0.747721  0.605078
			 0.233524  0.671732  0.702978
			-0.167618 -0.873845  0.456342
			-0.179620 -0.972773  0.146298
			 0.203651  0.845722  0.493197
			-0.039046  0.955033  0.293854
			-0.322817 -0.930946 -0.170497
			-0.008391  0.988127 -0.153302
			-0.017486  0.973038 -0.229888
			-0.264680 -0.755968 -0.598671
			 0.272836  0.873046 -0.404104
			-0.263290 -0.752227 -0.603967
			 0.211109  0.568387 -0.795191
			 0.084911  0.210848 -0.973798
			-0.273337 -0.779222 -0.563977
			 0.162246  0.429295 -0.888467
			 0.070114  0.169242 -0.983070
			-0.204577 -0.592895 -0.778848
			 0.164458  0.435572 -0.884980
			 0.169815  0.450778 -0.876327
			-0.174377 -0.510212 -0.842159
			 0.206497  0.555214 -0.805612
			 0.053770  0.123352 -0.990876
			-0.015576 -0.070626 -0.997362
			 0.077997  0.191399 -0.978397
			 0.053399  0.122310 -0.991054
			 0.478386  0.238997  0.844996
			-0.053399 -0.122310  0.991054
			 0.164053 -0.003668  0.986416
			-0.169627 -0.450244  0.876625
			 0.422243  0.257406  0.869145
			-0.207144 -0.557062  0.804189
			-0.237378 -0.643639  0.727549
			 0.187825  0.547078  0.815710
			-0.165730 -0.439180  0.882963
			 0.195878  0.569117  0.798552
			-0.266626 -0.727984  0.631593
			 0.202224  0.586466  0.784295
			-0.272825 -0.745964  0.607467
			 0.196059  0.569612  0.798158
			-0.275588 -0.753992  0.596237
			 0.213744  0.617909  0.756598
			-0.308865 -0.851692  0.423283
			 0.290644  0.825414  0.483895
			-0.324848 -0.899959  0.290710
			 0.255118  0.730202  0.633793
			-0.336056 -0.936451  0.100447
			 0.042925  0.986644 -0.157067
			-0.316248 -0.892554 -0.321370
			-0.252623 -0.723463 -0.642443
			-0.139234  0.906013 -0.399666
			-0.015445  0.828239 -0.560124
			-0.288788 -0.820481 -0.493307
			-0.136657  0.734687 -0.664442
			-0.218944 -0.632079 -0.743310
			-0.267824  0.511089 -0.816686
			-0.267386  0.714543 -0.646445
			 0.021550  0.183070 -0.982840
			 0.171773  0.456338 -0.873043
			-0.198316 -0.575785 -0.793169
			-0.176281  0.549887 -0.816400
			 0.052007  0.136010 -0.989307
			 0.484425  0.392631 -0.781723
			 0.226916  0.229153 -0.946543
			 0.052189  0.118917 -0.991508
			-0.162152 -0.476642 -0.863996
			 0.053399  0.122310 -0.991054
			-0.044492 -0.151171 -0.987479
			 0.122269  0.366761  0.922227
			 0.167794 -0.548207  0.819298
			 0.070183  0.222558  0.972357
			 0.027534 -0.224682  0.974013
			-0.091212 -0.562642  0.821633
			 0.162842  0.478536  0.862813
			 0.124775  0.373680  0.919120
			-0.207726 -0.561840  0.800692
			 0.195119  0.567040  0.800212
			-0.259349 -0.706931  0.657983
			 0.195435  0.567905  0.799518
			-0.272005 -0.743582  0.610802
			-0.267121 -0.729419  0.629745
			 0.185498  0.540705  0.820468
			 0.199826  0.579911  0.789754
			-0.273430 -0.747721  0.605078
			 0.215186  0.670858  0.709641
			-0.432651 -0.779012  0.453765
			-0.480788 -0.865010  0.143370
			-0.010219  0.835695  0.549050
			 0.053867  0.843963  0.533625
			-0.338126 -0.925468 -0.170646
			-0.448495  0.756936  0.475253
			-0.183211  0.976732 -0.111315
			-0.410827 -0.745181 -0.525219
			-0.772841  0.617976  0.144075
			-0.427084 -0.688006 -0.586704
			-0.752183  0.647423 -0.122515
			-0.804630  0.568932 -0.169839
			-0.495576  0.769763 -0.402282
			-0.465075 -0.688371 -0.556568
			-0.803313  0.515117 -0.298785
			-0.528705  0.572869 -0.626267
			-0.386860  0.587517 -0.710716
			-0.361384  0.256651 -0.896395
			 0.053399  0.122310 -0.991054
			 0.012894  0.500246 -0.865781
			-0.492111 -0.371308 -0.787326
			-0.753788  0.514376 -0.408876
			-0.617087  0.352232 -0.703635
			-0.092485  0.104791 -0.990169
			-0.090209  0.227926 -0.969452
			 0.176195  0.526395 -0.831769