<?xml version="1.0"?>
<VTKFile type="PolyData" version="0.1" byte_order="LittleEndian" compressor="vtkZLibDataCompressor">
	<PolyData>
		<Piece NumberOfPoints="18439" NumberOfVerts="0" NumberOfLines="0" NumberOfStrips="0" NumberOfPolys="36874">
		<PointData Normals="Normals">
		<DataArray type="Float32" Name="Normals" NumberOfComponents="3" format="ascii">
			 0.928364 -0.344827  0.138594
			 0.950417 -0.309697 -0.027566
			 0.901787 -0.249275  0.352940
			 0.939209 -0.342184  0.027133
			 0.939097 -0.343433  0.010506
			 0.968080  0.081002  0.237083
			 0.834577 -0.079626  0.545060
			 0.960359 -0.278603 -0.006693
			 0.978608 -0.154786  0.135381
			 0.968249  0.086048  0.234621
			 0.868888 -0.052962  0.492139
			 0.986688 -0.150511 -0.061279
			 0.968449  0.081533  0.235378
			 0.968000  0.086629  0.235419
			 0.967102  0.088424  0.238405
			 0.797562 -0.019981  0.602879
			 0.986757 -0.137457 -0.085716
			 0.967477  0.088852  0.236714
			 0.967495  0.089407  0.236434
			 0.967321  0.089237  0.237207
			 0.874553  0.065878  0.480406
			 0.931037 -0.236977 -0.277409
			 0.967617  0.088758  0.236177
			 0.967047  0.091182  0.237591
			 0.967283  0.090764  0.236788
			 0.966915  0.090093  0.238540
			 0.789388  0.094459  0.606553
			 0.911321 -0.198213 -0.360776
			 0.968425  0.086664  0.233669
			 0.966348  0.091675  0.240261
			 0.967052  0.093890  0.236553
			 0.966678  0.094036  0.238025
			 0.823413  0.209304  0.527402
			 0.968631  0.087877  0.232373
			 0.966642  0.091098  0.239275
			 0.926298  0.243877  0.287204
			 0.952607  0.157480  0.260209
			 0.861081  0.307026  0.405274
			 0.938911  0.039231 -0.341865
			 0.967234  0.089741  0.237372
			 0.885629  0.280254  0.370266
			 0.906813  0.310039  0.285489
			 0.865149  0.365008  0.343877
			 0.968136  0.090296  0.233481
			 0.917914  0.184745  0.351084
			 0.899622  0.295786  0.321135
			 0.890442  0.328144  0.315321
			 0.943536  0.277709 -0.180415
			 0.966528  0.092392  0.239255
			 0.863713  0.271070  0.424825
			 0.913323  0.390309  0.115978
			 0.792263  0.350470  0.499435
			 0.809253  0.501934  0.305139
			 0.877066 -0.476630 -0.059409
			 0.916026 -0.384097  0.115398
			 0.768127 -0.347159  0.537962
			 0.926093 -0.375607 -0.035054
			 0.911927 -0.392475  0.119587
			 0.909395 -0.247565  0.334154
			 0.898728 -0.386401 -0.207259
			 0.916410 -0.400019  0.012106
			 0.936285 -0.345806 -0.061212
			 0.918876 -0.284694  0.273066
			 0.796430 -0.176686  0.578302
			 0.852809 -0.433153 -0.291623
			 0.928634 -0.367502 -0.050585
			 0.952416 -0.303061 -0.032019
			 0.846469 -0.120181  0.518629
			 0.764469 -0.014439  0.644478
			 0.739716 -0.462229 -0.488995
			 0.908223 -0.404455 -0.107235
			 0.924701 -0.365001  0.107856
			 0.792773 -0.101883  0.600915
			 0.907071 -0.313677 -0.280691
			 0.828245 -0.069461  0.555981
			 0.675636 -0.132048  0.725306
			 0.915484 -0.284365 -0.284553
			 0.861392  0.003518  0.507912
			 0.853677 -0.284811 -0.435979
			 0.824500  0.060864  0.562509
			 0.660359  0.081170  0.746503
			 0.794139 -0.283038 -0.537755
			 0.811589  0.133416  0.568767
			 0.792503  0.148227  0.591517
			 0.734875  0.095351  0.671430
			 0.940158 -0.063055 -0.334799
			 0.781205  0.299515  0.547690
			 0.719658  0.323854  0.614135
			 0.910219 -0.005013 -0.414030
			 0.835958  0.358687  0.415327
			 0.756432  0.312355  0.574607
			 0.966803  0.106713 -0.232069
			 0.902320  0.317643  0.291344
			 0.880508  0.350503  0.319093
			 0.784312  0.366022  0.500840
			 0.958371  0.191084 -0.212133
			 0.906075  0.266335  0.328718
			 0.887852  0.327364  0.323276
			 0.819791  0.414018  0.395580
			 0.875968  0.291598 -0.384230
			 0.929215  0.363067 -0.068414
			 0.838373  0.288811  0.462211
			 0.899751  0.297375  0.319379
			 0.741805  0.522732  0.420041
			 0.923538  0.307347 -0.229274
			 0.865009  0.477114  0.155087
			 0.780699  0.426430  0.456713
			 0.841773  0.372606  0.390567
			 0.807257  0.448936  0.383080
			 0.934210  0.318329 -0.160813
			 0.870148  0.477317  0.122307
			 0.800498  0.511333  0.312524
			 0.711652  0.467206  0.524629
			 0.810708  0.507309  0.292155
			 0.899794  0.436155 -0.007629
			 0.800389  0.513205  0.309776
			 0.693939  0.556000  0.457449
			 0.843332  0.506319  0.179953
			 0.756239  0.519760  0.397348
			 0.843665 -0.533184  0.062792
			 0.924784 -0.380080 -0.016800
			 0.900967 -0.432725 -0.030555
			 0.869066 -0.414766  0.269559
			 0.912976 -0.396418 -0.096284
			 0.921942 -0.386879 -0.017027
			 0.933697 -0.333025  0.131371
			 0.703677 -0.555660  0.442748
			 0.900202 -0.404453 -0.161242
			 0.926444 -0.376315 -0.002592
			 0.926420 -0.376057 -0.016050
			 0.878637 -0.387032  0.279539
			 0.672107 -0.397272  0.624812
			 0.905578 -0.381674 -0.184889
			 0.909545 -0.413596 -0.040072
			 0.761754 -0.298834  0.574803
			 0.604231 -0.405001  0.686177
			 0.674152 -0.363300 -0.643026
			 0.895641 -0.420007 -0.146263
			 0.783986 -0.092620  0.613799
			 0.584494 -0.521959 -0.621173
			 0.600290 -0.094213  0.794177
			 0.740796 -0.137298  0.657517
			 0.564495 -0.524545 -0.637300
			 0.628715 -0.106408  0.770295
			 0.487779 -0.336664 -0.805392
			 0.603802 -0.118326  0.788288
			 0.288722 -0.363385 -0.885759
			 0.664695  0.010468  0.746999
			 0.665068  0.128396  0.735612
			 0.387075 -0.512686 -0.766338
			 0.566737  0.086955  0.819259
			 0.433924 -0.355017 -0.828016
			 0.676614  0.248339  0.693130
			 0.575962 -0.212713 -0.789291
			 0.653286  0.428524  0.624106
			 0.652739 -0.288067 -0.700628
			 0.481058  0.624366  0.615410
			 0.404138  0.553398  0.728270
			 0.726064 -0.035604 -0.686676
			 0.240202  0.721651  0.649197
			 0.411242  0.728896  0.547300
			 0.645410 -0.107894 -0.756137
			 0.141589  0.835538  0.530807
			 0.879955  0.251378 -0.403029
			 0.211494  0.757698  0.617357
			 0.842282  0.186001 -0.505893
			 0.621904  0.603908  0.498498
			 0.204950  0.785119  0.584415
			 0.906552  0.393142 -0.153480
			 0.445043  0.644757  0.621445
			 0.310533  0.717216  0.623788
			 0.838974  0.480596 -0.255138
			 0.872849  0.486986  0.030211
			 0.818311  0.495839  0.290631
			 0.614696  0.613377  0.495875
			 0.833186  0.543598 -0.101364
			 0.803166  0.548233  0.233052
			 0.756696  0.543113  0.363860
			 0.736311  0.667794  0.108837
			 0.717815  0.637510  0.279751
			 0.810810 -0.583308  0.047765
			 0.771325 -0.632749  0.068151
			 0.937736 -0.342094 -0.059842
			 0.813607 -0.579855  0.041926
			 0.680148 -0.649449  0.339943
			 0.900727 -0.423202 -0.097631
			 0.952271 -0.305154  0.000078
			 0.649591 -0.593174  0.475540
			 0.588656 -0.544749  0.597248
			 0.903356 -0.371872 -0.213564
			 0.720746 -0.389320  0.573493
			 0.837158 -0.438180 -0.327233
			 0.551853 -0.367753  0.748434
			 0.712392 -0.250527 -0.655520
			 0.540410 -0.432798  0.721543
			 0.542526 -0.165643  0.823492
			 0.572365 -0.397664 -0.717090
			 0.545738 -0.138492  0.826395
			 0.445098 -0.429607 -0.785656
			 0.615889 -0.132041  0.776650
			 0.271783 -0.451231 -0.849982
			 0.733116 -0.153743  0.662486
			 0.729863 -0.105921  0.675302
			 0.620547 -0.029302  0.783577
			 0.487474 -0.237494 -0.840195
			 0.753708  0.043643  0.655724
			 0.442490 -0.379871 -0.812314
			 0.645706  0.161327  0.746328
			 0.512261  0.191149  0.837265
			 0.253103 -0.574154 -0.778607
			 0.318204  0.324143  0.890883
			 0.397473 -0.434660 -0.808089
			 0.197051  0.465830  0.862626
			 0.012561  0.710137  0.703911
			 0.576586 -0.301814 -0.759202
			-0.076261  0.680770  0.728504
			 0.618982 -0.135954 -0.773514
			-0.027882  0.737887  0.674324
			-0.088100  0.842800  0.530901
			 0.801720 -0.007824 -0.597605
			 0.044176  0.777976  0.626695
			 0.758249  0.034153 -0.651040
			 0.202878  0.764611  0.611698
			-0.137538  0.733827  0.665226
			-0.080886  0.787098  0.611464
			 0.849126  0.243880 -0.468458
			-0.019164  0.709704  0.704206
			 0.123480  0.826347  0.549411
			 0.809275  0.345852 -0.474756
			 0.227518  0.739041  0.634001
			 0.844693  0.490783 -0.213503
			 0.345276  0.553721  0.757696
			 0.794515  0.605329 -0.047616
			 0.602558  0.752894  0.264595
			 0.340528  0.732710  0.589145
			 0.602661  0.766060  0.223352
			 0.474642  0.834424  0.280026
			 0.891629 -0.420454  0.167749
			 0.935543 -0.349524 -0.050328
			 0.782421 -0.608595  0.131902
			 0.527436 -0.843840  0.098502
			 0.937417 -0.210638 -0.277128
			 0.851963 -0.523202  0.019759
			 0.749159 -0.660404  0.051070
			 0.508375 -0.835456  0.208631
			 0.922721 -0.138221 -0.359781
			 0.892537 -0.388083 -0.229581
			 0.498279 -0.664931  0.556362
			 0.807980 -0.450877 -0.379260
			 0.437568 -0.793734  0.422441
			 0.347865 -0.585066  0.732564
			 0.738080 -0.458691 -0.494747
			 0.377657 -0.879193  0.290449
			 0.545542 -0.212360  0.810719
			 0.621408 -0.255418 -0.740652
			 0.377660 -0.511804  0.771615
			 0.398951 -0.404896  0.822708
			 0.547320 -0.280762 -0.788392
			 0.544063 -0.167284  0.822181
			 0.429325 -0.299239 -0.852115
			 0.387422 -0.328915  0.861186
			 0.315416 -0.329611 -0.889846
			 0.548680 -0.269040  0.791539
			 0.467787 -0.333602  0.818416
			 0.369047 -0.511473 -0.775992
			-0.033253  0.214122  0.976202
			 0.416016 -0.372328 -0.829622
			-0.010123  0.167108  0.985872
			 0.581314 -0.255117 -0.772633
			 0.588407 -0.320876 -0.742132
			 0.002592  0.329973  0.943971
			 0.417835 -0.418764 -0.806222
			-0.093193  0.488764  0.867411
			 0.269846 -0.556882 -0.785524
			-0.238622  0.628152  0.740550
			 0.511928 -0.356609 -0.781471
			-0.210753  0.815657  0.538739
			-0.220724  0.756035  0.616158
			-0.358625  0.726483  0.586131
			 0.675047 -0.328490 -0.660553
			-0.196999  0.853332  0.482667
			-0.434554  0.782011  0.446749
			 0.647784 -0.107897 -0.754096
			-0.229825  0.702552  0.673453
			-0.232679  0.682737  0.692568
			-0.193228  0.865094  0.462841
			 0.721093  0.156421 -0.674923
			-0.212531  0.762253  0.611345
			 0.607243  0.047747 -0.793066
			-0.164980  0.593667  0.787586
			 0.751676  0.493985 -0.436922
			-0.037157  0.610445  0.791160
			 0.614193  0.728283 -0.303789
			 0.021604  0.674339  0.738079
			 0.538350  0.829815 -0.146675
			 0.595185  0.755750  0.273066
			-0.059513  0.827291  0.558536
			 0.616559  0.787257 -0.005750
			 0.577835  0.788561  0.210345
			 0.147850  0.796829  0.585780
			 0.347741  0.905336  0.243752
			 0.949748 -0.309633  0.045439
			 0.845250 -0.531747  0.052612
			 0.976213 -0.101621 -0.191448
			 0.924663 -0.375226  0.064397
			 0.773135 -0.576062  0.265314
			 0.518836 -0.784975  0.338476
			 0.978510 -0.180491 -0.099516
			 0.938583 -0.343122 -0.035784
			 0.773985 -0.565396  0.284955
			 0.429707 -0.831520  0.351974
			 0.883204  0.113183 -0.455078
			 0.979062 -0.160925 -0.124452
			 0.685012 -0.705438  0.181773
			 0.270720 -0.958383  0.090498
			 0.943366 -0.043901 -0.328735
			 0.250562 -0.842424  0.476940
			 0.815583  0.093578 -0.570956
			 0.180838 -0.796201  0.577336
			 0.803022 -0.319237 -0.503165
			 0.033901 -0.829170  0.557928
			 0.572114 -0.200239 -0.795331
			 0.123436 -0.682182  0.720677
			 0.182173 -0.650381  0.737419
			 0.252396 -0.011750 -0.967534
			 0.258686 -0.381639 -0.887335
			 0.317990 -0.447970  0.835565
			 0.259264 -0.314651  0.913067
			 0.448551 -0.231782 -0.863176
			 0.447261 -0.187809  0.874454
			 0.418137 -0.384267 -0.823066
			-0.061506 -0.032111  0.997575
			 0.254926 -0.577148 -0.775807
			-0.253121  0.370935  0.893463
			 0.374889 -0.475671 -0.795689
			-0.394422  0.272587  0.877533
			 0.523259 -0.318166 -0.790519
			-0.543982  0.422493  0.724920
			 0.511456 -0.383837 -0.768783
			-0.605258  0.636992  0.477322
			 0.720804 -0.435821 -0.538964
			-0.451474  0.689146  0.566744
			 0.503729 -0.543485 -0.671410
			-0.346180  0.822104  0.451970
			 0.413392 -0.462218 -0.784501
			-0.395642  0.660206  0.638398
			 0.389979 -0.373003 -0.841864
			-0.347406  0.659648  0.666400
			-0.450760  0.728771  0.515446
			 0.390035  0.033135 -0.920189
			-0.228963  0.708214  0.667803
			-0.220760  0.755844  0.616376
			 0.586462 -0.144602 -0.796923
			-0.244353  0.574951  0.780821
			-0.194151  0.862294  0.467664
			 0.736921  0.278319 -0.616000
			-0.241685  0.605025  0.758600
			 0.736242  0.600123 -0.312641
			 0.167935  0.762219  0.625101
			-0.232945  0.600659  0.764781
			 0.771956  0.453870 -0.445014
			 0.800321  0.560647 -0.212414
			-0.005754  0.732137  0.681101
			 0.673244  0.734296 -0.086544
			 0.458783  0.879552 -0.125949
			 0.177229  0.815660  0.550665
			 0.122237  0.762924  0.634788
			 0.469711  0.856080  0.215542
			 0.357793  0.908676  0.215049
			-0.160183  0.839693  0.518833
			 0.966977 -0.248631  0.055885
			 0.805958 -0.565499  0.174953
			 0.979124  0.029650 -0.200969
			 0.927954 -0.365473  0.072606
			 0.683461 -0.660863  0.310043
			 0.972671 -0.105334 -0.206733
			 0.948261 -0.314954  0.039123
			 0.471519 -0.796267  0.378949
			 0.668622  0.394176 -0.630479
			 0.195282 -0.862359  0.467058
			 0.342409 -0.885655  0.313595
			 0.879909  0.101261 -0.464182
			 0.280790 -0.885601  0.369947
			 0.104039 -0.940118  0.324531
			-0.179034 -0.964945  0.191709
			 0.731512  0.182811 -0.656847
			-0.194410 -0.898085  0.394515
			-0.093523 -0.831381  0.547746
			 0.487062  0.039243 -0.872467
			-0.058453 -0.831809  0.551933
			 0.222500  0.147332 -0.963701
			-0.065187 -0.816484  0.573647
			-0.122155 -0.655268  0.745449
			 0.252099 -0.250102 -0.934808
			-0.166518 -0.496823  0.851697
			 0.276659 -0.517807 -0.809489
			 0.400287 -0.373017 -0.837014
			-0.403744 -0.126107  0.906106
			-0.798630 -0.102632  0.592973
			 0.397468 -0.273792 -0.875796
			-0.448924  0.225126  0.864716
			 0.247885 -0.525488 -0.813868
			-0.454695  0.422626  0.783958
			 0.274476 -0.539600 -0.795913
			-0.498624  0.460596  0.734285
			 0.489984 -0.440548 -0.752179
			-0.489501  0.530394  0.692103
			 0.592136 -0.472403 -0.652805
			-0.435412  0.633872  0.639217
			 0.588638 -0.329727 -0.738051
			-0.258257  0.701792  0.663888
			-0.402390  0.690428  0.601138
			 0.450867 -0.282660 -0.846625
			-0.274534  0.862359  0.425371
			-0.483903  0.773112  0.409975
			-0.379729  0.680005  0.627167
			 0.384292 -0.264126 -0.884601
			-0.273526  0.607078  0.746070
			 0.613179 -0.137483 -0.777856
			-0.193228  0.865094  0.462841
			-0.220520  0.757073  0.614935
			 0.572025 -0.114029 -0.812250
			-0.245963  0.554200  0.795207
			-0.243713  0.575367  0.780710
			 0.584568  0.393945 -0.709235
			-0.217699  0.579973  0.784983
			 0.647459  0.666756 -0.369056
			 0.228086  0.734486  0.639096
			-0.107752  0.674136  0.730685
			 0.406969  0.912552 -0.039627
			 0.536878  0.834596  0.123096
			 0.203375  0.786925  0.582530
			 0.166248  0.813819  0.556773
			 0.448150  0.883203 -0.138098
			 0.176199  0.958109  0.225641
			 0.678059 -0.717354  0.159918
			 0.896495 -0.442902 -0.009143
			 0.634464 -0.697719  0.332575
			 0.970115 -0.028425 -0.240841
			 0.884435 -0.458625  0.086093
			 0.576846 -0.754616  0.312697
			 0.923121  0.266136 -0.277446
			 0.975903 -0.049885 -0.212333
			 0.883988 -0.402328  0.238015
			 0.432893 -0.810638  0.394222
			 0.843395  0.370932 -0.388624
			 0.178319 -0.790122  0.586385
			 0.862310  0.308226 -0.401744
			 0.080950 -0.828561  0.553964
			 0.720591  0.563812 -0.403473
			 0.024505 -0.962135  0.271392
			 0.701392  0.467474 -0.538013
			 0.026190 -0.966031  0.256996
			 0.420087  0.334224 -0.843660
			-0.137610 -0.855255  0.499526
			 0.628204  0.430718 -0.647912
			-0.170561 -0.901658  0.397289
			 0.323375  0.233203 -0.917045
			-0.335610 -0.888642  0.312504
			-0.378896 -0.792742  0.477453
			 0.223693  0.174731 -0.958850
			-0.429879 -0.753990  0.496656
			-0.387356 -0.703978  0.595254
			 0.336427 -0.016483 -0.941538
			 0.402815 -0.385596 -0.830064
			-0.595888 -0.493839  0.633243
			 0.248427 -0.516371 -0.819515
			-0.694451 -0.174393  0.698053
			-0.698640 -0.074192  0.711582
			 0.352748 -0.232362 -0.906376
			 0.434546 -0.345066 -0.831901
			-0.615770  0.052102  0.786167
			 0.278576 -0.561709 -0.779002
			-0.663251  0.250611  0.705156
			-0.548537  0.360823  0.754214
			 0.241441 -0.607587 -0.756641
			-0.553134  0.516216  0.653808
			 0.245165 -0.564776 -0.787966
			-0.582511  0.551949  0.596633
			 0.266482 -0.559398 -0.784853
			-0.590585  0.658617  0.466243
			 0.506548 -0.352780 -0.786691
			-0.403695  0.647559  0.646243
			-0.225098  0.731906  0.643101
			-0.238543  0.635518  0.734291
			 0.527803 -0.235769 -0.815969
			-0.199201  0.846074  0.494389
			 0.476593 -0.266496 -0.837725
			-0.243522  0.584806  0.773717
			-0.228963  0.708214  0.667803
			-0.237957  0.640678  0.729956
			 0.355984  0.044815 -0.933403
			-0.244353  0.574951  0.780821
			-0.194151  0.862294  0.467664
			 0.219105  0.174312 -0.960004
			-0.241685  0.605025  0.758600
			-0.254026  0.569053  0.782064
			 0.262361  0.234064 -0.936126
			-0.400778  0.625672  0.669205
			-0.280103  0.550869  0.786154
			 0.400088  0.790423 -0.463798
			 0.483730  0.871123 -0.084057
			 0.471642  0.870374 -0.141223
			-0.062080  0.717414  0.693864
			 0.472560  0.856399  0.207885
			 0.453637  0.889762 -0.049718
			-0.074275  0.856518  0.510735
			 0.213681  0.847847  0.485236
			 0.805001 -0.590488  0.057177
			 0.700361 -0.648638  0.297891
			 0.970226 -0.214765 -0.111734
			 0.811615 -0.581856  0.052118
			 0.486830 -0.759345  0.431658
			 0.906906  0.204375 -0.368371
			 0.978159 -0.181580 -0.100835
			 0.370186 -0.818419  0.439403
			 0.936327  0.016497 -0.350687
			 0.081725 -0.856743  0.509181
			 0.748321  0.509479 -0.424718
			-0.019921 -0.823467  0.566992
			 0.713010  0.541346 -0.445543
			-0.054696 -0.840047  0.539701
			 0.728495  0.506939 -0.460725
			-0.066847 -0.812591  0.578955
			-0.289302 -0.943954  0.158833
			 0.514721  0.634921 -0.576089
			-0.165537 -0.942468  0.290339
			-0.338350 -0.865153  0.370112
			 0.546191  0.533618 -0.645665
			-0.247473 -0.853399  0.458706
			 0.369765  0.584280 -0.722409
			-0.201585 -0.860678  0.467472
			 0.246966  0.289487 -0.924754
			-0.243958 -0.816259  0.523616
			-0.337662 -0.812742  0.474775
			 0.513409 -0.084407 -0.853937
			-0.439386 -0.718947  0.538505
			 0.619976 -0.139674 -0.772077
			-0.587450 -0.564313  0.579987
			-0.803161 -0.244062  0.543436
			 0.418371 -0.259518 -0.870382
			-0.653860 -0.234174  0.719441
			 0.267358 -0.506709 -0.819586
			-0.842282 -0.186001  0.505893
			 0.506473 -0.318831 -0.801117
			-0.592956 -0.022544  0.804872
			-0.711793  0.095858  0.695770
			 0.490010 -0.247990 -0.835667
			 0.253839 -0.513732 -0.819520
			-0.594323  0.490511  0.637271
			 0.244072 -0.578322 -0.778404
			-0.528273  0.549676  0.647068
			 0.242294 -0.598590 -0.763511
			-0.403463  0.606126  0.685418
			-0.321026  0.594610  0.737100
			 0.242822 -0.592762 -0.767863
			-0.321951  0.611708  0.722577
			 0.280381 -0.361384 -0.889257
			-0.530604  0.709749  0.463331
			 0.466962 -0.273343 -0.840937
			-0.252198  0.733337  0.631322
			-0.328070  0.608788  0.722286
			 0.346309 -0.121389 -0.930206
			-0.398686  0.747320  0.531511
			-0.241097  0.746362  0.620304
			 0.219105  0.174312 -0.960004
			-0.245963  0.554200  0.795207
			-0.244137  0.586049  0.772594
			 0.219105  0.174312 -0.960004
			-0.243100  0.868395  0.432173
			-0.507903  0.528949  0.679829
			 0.221200  0.253141 -0.941796
			-0.220850  0.755362  0.616924
			-0.648371  0.355179  0.673342
			 0.389711  0.754928 -0.527393
			 0.373636  0.915840  0.147007
			-0.192441  0.867472  0.458734
			-0.492888  0.736633  0.463050
			 0.368967  0.922917 -0.109804
			-0.032726  0.979890  0.196818
			 0.781866 -0.621059  0.054096
			 0.887449 -0.443340 -0.125932
			 0.694921 -0.707291  0.129490
			 0.405367 -0.873287  0.270179
			 0.880159 -0.080076 -0.467822
			 0.843842 -0.535132 -0.038886
			 0.586592 -0.809742 -0.013149
			 0.210339 -0.790431  0.575252
			 0.947185 -0.080025 -0.310422
			 0.085051 -0.843775  0.529877
			 0.860999  0.179190 -0.475931
			-0.033173 -0.830306  0.556278
			 0.834304  0.354659 -0.422007
			-0.060629 -0.826952  0.558985
			 0.515110  0.679794 -0.522050
			-0.064261 -0.818614  0.570670
			 0.248555  0.782580 -0.570703
			-0.064215 -0.818750  0.570531
			 0.272942  0.725867 -0.631330
			-0.068702 -0.822503  0.564565
			 0.369988  0.629358 -0.683340
			-0.204945 -0.878742  0.431029
			 0.489429  0.577445 -0.653433
			-0.394577 -0.814481  0.425303
			 0.341353  0.584667 -0.735948
			-0.420313 -0.876568  0.234292
			 0.593247  0.413740 -0.690515
			-0.430302 -0.852540  0.296604
			-0.381116 -0.845476  0.374018
			 0.814312  0.185746 -0.549854
			-0.351676 -0.818789  0.453708
			 0.620673 -0.079558 -0.780013
			 0.573240 -0.154354 -0.804680
			-0.484538 -0.659024  0.575216
			-0.544132 -0.543395  0.639214
			 0.278031  0.065749 -0.958289
			 0.252215 -0.424464 -0.869598
			-0.741737 -0.231366  0.629447
			 0.244178 -0.577048 -0.779315
			-0.780090 -0.122330  0.613575
			 0.327550 -0.262033 -0.907744
			-0.764894 -0.048144  0.642295
			 0.450983 -0.319757 -0.833252
			-0.651434  0.235533  0.721168
			-0.588353  0.407000  0.698668
			 0.389087 -0.545557 -0.742253
			-0.384833  0.498051  0.777046
			 0.245165 -0.564776 -0.787966
			-0.293202  0.580802  0.759402
			 0.244806 -0.569356 -0.784775
			 0.254291 -0.563830 -0.785742
			-0.526457  0.646462  0.552140
			-0.434150  0.671241  0.600749
			 0.429246 -0.410646 -0.804424
			-0.284060  0.625898  0.726323
			-0.542359  0.745720  0.386878
			-0.259379  0.845736  0.466270
			 0.493974 -0.211349 -0.843370
			-0.439873  0.715927  0.542130
			-0.265580  0.661832  0.701024
			-0.290178  0.589902  0.753505
			 0.219105  0.174312 -0.960004
			-0.244353  0.574951  0.780821
			 0.219105  0.174312 -0.960004
			-0.251429  0.608784  0.752402
			-0.217577  0.771854  0.597353
			-0.430402  0.645732  0.630670
			 0.219105  0.174312 -0.960004
			-0.468625  0.761999  0.446861
			-0.475074  0.445972  0.758515
			 0.317459  0.317692 -0.893460
			-0.430902  0.599830  0.674138
			-0.097452  0.986211  0.133621
			-0.127019  0.980635  0.149068
			-0.251167  0.604851  0.755685
			 0.267855  0.936924 -0.224379
			-0.120573  0.982297  0.143227
			-0.202642  0.834143  0.512926
			 0.818820 -0.474906 -0.322431
			 0.674308 -0.729118  0.116916
			 0.840072 -0.541956 -0.022360
			 0.559054 -0.817446  0.138573
			 0.904226 -0.075918 -0.420200
			 0.400899 -0.852966  0.334140
			 0.842347  0.185991 -0.505776
			 0.045586 -0.939767  0.338691
			 0.671068  0.018833 -0.741135
			 0.106344 -0.841037  0.530412
			 0.512075  0.590043 -0.624164
			 0.150538 -0.722383  0.674896
			 0.307549  0.668918 -0.676668
			-0.045426 -0.813037  0.580419
			 0.266609  0.770735 -0.578629
			-0.063419 -0.820583  0.567973
			 0.314841  0.823799 -0.471361
			-0.054696 -0.840047  0.539701
			 0.571763  0.734683 -0.365071
			 0.361912  0.711716 -0.602031
			-0.066847 -0.812591  0.578955
			 0.445969  0.610776 -0.654206
			-0.064225 -0.818726  0.570564
			-0.068616 -0.808395  0.584594
			 0.303739  0.585461 -0.751618
			-0.066862 -0.825855  0.559876
			 0.535611  0.442038 -0.719499
			-0.194872 -0.871687  0.449620
			-0.418041 -0.800939  0.428594
			 0.513338  0.062912 -0.855849
			-0.594173 -0.739294  0.316807
			-0.572843 -0.570280  0.588686
			 0.230639  0.158314 -0.960048
			-0.678985 -0.482783  0.553035
			-0.584042 -0.467233  0.663725
			 0.249857 -0.183696 -0.950668
			-0.584995 -0.466285  0.663586
			 0.248321 -0.518186 -0.818400
			-0.556564 -0.133514  0.819987
			 0.264776 -0.558789 -0.785882
			-0.692455  0.046769  0.719884
			 0.463226 -0.393856 -0.793881
			-0.653363  0.166067  0.738583
			 0.623974 -0.354620 -0.696329
			-0.597123  0.307048  0.741017
			 0.403960 -0.376352 -0.833749
			 0.246828 -0.596152 -0.763950
			-0.583295  0.406734  0.703055
			-0.561806  0.589026  0.580810
			 0.242328 -0.598163 -0.763811
			-0.405017  0.646744  0.646251
			 0.192795 -0.583713 -0.788711
			-0.244656  0.571227  0.783462
			 0.251781 -0.439715 -0.862081
			-0.240322  0.618818  0.747842
			-0.200298  0.842357  0.500265
			 0.220816  0.160931 -0.961950
			-0.227405  0.718107  0.657715
			-0.251837  0.579760  0.774872
			 0.219105  0.174312 -0.960004
			-0.325749  0.591908  0.737230
			-0.448384  0.747677  0.489765
			 0.219105  0.174312 -0.960004
			-0.372633  0.656078  0.656244
			-0.254436  0.576906  0.776136
			 0.219105  0.174312 -0.960004
			-0.245261  0.563542  0.788824
			-0.242335  0.598158  0.763840
			 0.080669  0.778426 -0.622503
			-0.127019  0.980635  0.149068
			-0.192441  0.867472  0.458734
			-0.105030  0.992959  0.054669
			-0.134506  0.974008  0.182125
			 0.535238 -0.746663 -0.394925
			 0.407442 -0.881660  0.237945
			 0.605823 -0.467920 -0.643399
			 0.570951 -0.820016 -0.039188
			 0.088767 -0.973634  0.210002
			 0.770582 -0.401160 -0.495205
			 0.168235 -0.904822  0.391091
			 0.731599 -0.016617 -0.681486
			 0.033021 -0.835290  0.548803
			 0.035455 -0.971662  0.233578
			 0.714450  0.342865 -0.609898
			 0.196710 -0.794813  0.574012
			-0.087052 -0.688638  0.719839
			 0.212007  0.770788 -0.600748
			 0.105591  0.714027 -0.692081
			-0.083571 -0.770838  0.631490
			 0.387292  0.635363 -0.668050
			-0.064261 -0.818614  0.570670
			-0.064215 -0.818750  0.570531
			 0.443255  0.765184 -0.466862
			-0.226792 -0.769141  0.597443
			 0.350336  0.748266 -0.563276
			-0.345570 -0.816688  0.462128
			 0.110337  0.734760 -0.669265
			-0.334992 -0.818604  0.466507
			 0.173060  0.450191 -0.875983
			-0.604276 -0.728914  0.321688
			-0.356345 -0.805113  0.474073
			 0.218526  0.178720 -0.959305
			-0.394454 -0.755044  0.523716
			-0.485959 -0.666960  0.564763
			 0.219105  0.174312 -0.960004
			-0.521138 -0.525149  0.672743
			 0.226596  0.112797 -0.967412
			-0.579459 -0.541283  0.609243
			 0.252215 -0.424464 -0.869598
			-0.599760 -0.114818  0.791877
			 0.242875 -0.592179 -0.768298
			 0.241959 -0.602178 -0.760791
			-0.563433 -0.016481  0.825961
			 0.262544 -0.564036 -0.782855
			-0.803860 -0.108321  0.584819
			 0.527797 -0.308534 -0.791318
			-0.552143  0.241065  0.798094
			-0.454295  0.467038  0.758593
			 0.600552 -0.379744 -0.703622
			-0.422204  0.583774  0.693458
			 0.451896 -0.444786 -0.773256
			-0.319062  0.592578  0.739596
			 0.251541 -0.562902 -0.787274
			-0.245724  0.569878  0.784108
			 0.258729 -0.518718 -0.814819
			-0.302409  0.599261  0.741215
			-0.468648  0.790932  0.393359
			 0.244590 -0.086651 -0.965728
			-0.257922  0.666390  0.699568
			-0.400085  0.689397  0.603851
			-0.285215  0.587554  0.757211
			 0.219105  0.174312 -0.960004
			-0.518765  0.726970  0.449827
			-0.497558  0.662706  0.559665
			 0.219105  0.174312 -0.960004
			-0.279650  0.598800  0.750429
			-0.242462  0.596737  0.764896
			 0.219105  0.174312 -0.960004
			-0.242755  0.593529  0.767299
			 0.214963  0.205296 -0.954772
			-0.244521  0.572924  0.782269
			-0.122106  0.984273  0.127642
			-0.127019  0.980635  0.149068
			-0.242279  0.598775  0.763381
			 0.037951  0.874114 -0.484181
			-0.126003  0.981411  0.144629
			-0.202642  0.834143  0.512926
			 0.135709 -0.972845 -0.187473
			 0.235907 -0.658026 -0.715053
			 0.130885 -0.958506  0.253101
			 0.066151 -0.962752  0.262097
			 0.251087 -0.460408 -0.851455
			 0.278253 -0.891486  0.357456
			-0.038996 -0.862566  0.504393
			 0.217960  0.183039 -0.958619
			-0.064507 -0.818063  0.571464
			-0.390912 -0.894628  0.216275
			-0.186056 -0.934157  0.304383
			-0.385012 -0.677012  0.627216
			 0.106945  0.704251 -0.701818
			-0.477210 -0.648948  0.592520
			 0.080738  0.778244 -0.622718
			-0.120827 -0.728689  0.674056
			 0.158021  0.518498 -0.840326
			-0.063419 -0.820583  0.567973
			-0.151384 -0.834132  0.530364
			 0.093159  0.744728 -0.660792
			 0.066112  0.814310 -0.576602
			-0.303871 -0.675541  0.671784
			 0.055779  0.837696 -0.543235
			-0.453186 -0.646145  0.614074
			-0.427146 -0.779460  0.458176
			 0.119665  0.663596 -0.738422
			 0.213862  0.213279 -0.953282
			-0.433007 -0.792389  0.429626
			-0.276450 -0.808312  0.519789
			 0.219105  0.174312 -0.960004
			-0.513626 -0.667999  0.538426
			-0.533883 -0.645290  0.546395
			 0.220096  0.166545 -0.961126
			-0.586003 -0.524813  0.617344
			 0.249857 -0.183696 -0.950668
			-0.563539 -0.341777  0.752059
			 0.248321 -0.518186 -0.818400
			-0.812761 -0.124666  0.569039
			 0.245394 -0.561716 -0.790056
			-0.654081  0.098534  0.749948
			 0.243865 -0.580812 -0.776622
			-0.690082  0.014143  0.723544
			 0.243835 -0.581215 -0.776348
			-0.632289  0.170826  0.755621
			 0.385245 -0.528120 -0.756725
			-0.421061  0.367701  0.829130
			 0.429977 -0.354846 -0.830157
			-0.253802  0.567023  0.783600
			 0.552096 -0.297195 -0.778994
			-0.256939  0.604955  0.753637
			 0.389389 -0.445843 -0.805943
			-0.569207  0.650784  0.502439
			-0.444146  0.650201  0.616397
			 0.251781 -0.439715 -0.862081
			-0.602073  0.652154  0.460593
			-0.408373  0.642852  0.647998
			 0.220816  0.160931 -0.961950
			-0.602710  0.614033  0.509578
			-0.248698  0.632249  0.733724
			-0.408363  0.634017  0.656687
			-0.474536  0.722524  0.502739
			 0.219105  0.174312 -0.960004
			-0.241613  0.605763  0.758031
			 0.219105  0.174312 -0.960004
			-0.245254  0.563547  0.788795
			-0.244695  0.570720  0.783809
			 0.219105  0.174312 -0.960004
			-0.245261  0.563542  0.788824
			-0.242335  0.598158  0.763840
			 0.080669  0.778426 -0.622503
			-0.127019  0.980635  0.149068
			-0.192441  0.867472  0.458734
			-0.105030  0.992959  0.054669
			-0.134506  0.974008  0.182125
			 0.227512 -0.717405 -0.658417
			 0.148591 -0.982275 -0.114266
			 0.247524 -0.531324 -0.810197
			 0.131821 -0.976544 -0.170209
			 0.158055 -0.880859  0.446150
			-0.011197 -0.831269  0.555712
			 0.247235 -0.130042 -0.960181
			-0.059954 -0.814974  0.576356
			-0.067703 -0.826289  0.559126
			 0.127805  0.635793 -0.761174
			-0.176762 -0.867894  0.464181
			-0.190318 -0.790764  0.581727
			 0.067241  0.811660 -0.580211
			 0.104091  0.712927 -0.693436
			-0.060629 -0.826952  0.558985
			 0.117036  0.672288 -0.730964
			-0.240482 -0.719420  0.651597
			-0.486979 -0.699380  0.523123
			 0.079854  0.780515 -0.619966