<?xml version="1.0"?>
<VTKFile type="PolyData" version="0.1" byte_order="LittleEndian" compressor="vtkZLibDataCompressor">
	<PolyData>
		<Piece NumberOfPoints="14386" NumberOfVerts="0" NumberOfLines="0" NumberOfStrips="0" NumberOfPolys="28772">
		<PointData Normals="Normals">
		<DataArray type="Float32" Name="Normals" NumberOfComponents="3" format="ascii">
			 0.623330  0.773228  0.116216
			 0.297757  0.943172 -0.147462
			 0.352177  0.920769  0.167655
			-0.035621  0.916257 -0.398973
			 0.042240  0.998296  0.039969
			-0.068470  0.943804  0.323263
			-0.412728  0.892929 -0.179689
			-0.410527  0.903680  0.121739
			 0.586079  0.780815  0.216272
			 0.304363  0.902348 -0.305086
			 0.690751  0.675497  0.257915
			 0.715781  0.697634  0.029717
			 0.514102  0.761034  0.395593
			 0.025069  0.738862 -0.673364
			 0.403462  0.913122 -0.058081
			 0.696119  0.713047  0.083344
			 0.393181  0.877399  0.274788
			 0.145950  0.821693 -0.550882
			 0.441660  0.859795  0.256203
			 0.164224  0.919355  0.357475
			-0.254355  0.512573 -0.820077
			-0.012088  0.936886  0.349417
			-0.155577  0.783408  0.601702
			-0.404366  0.665675 -0.627152
			-0.710372  0.703375  0.024717
			-0.475181  0.859990  0.185933
			-0.497022  0.687159  0.529856
			-0.854035  0.510463 -0.100119
			-0.708944  0.704911  0.021124
			-0.667693  0.656658  0.350622
			 0.899454  0.436822 -0.011669
			 0.680186  0.627808 -0.378370
			 0.882736  0.429000  0.191608
			 0.539647  0.396139 -0.742850
			 0.572586  0.779814 -0.252958
			 0.741798  0.609722  0.279184
			 0.891769  0.450866  0.037326
			 0.645515  0.746328  0.162024
			 0.104161  0.771393 -0.627744
			 0.747058  0.661993  0.060361
			 0.767890  0.638883  0.045994
			 0.387259  0.799537  0.459080
			 0.025082  0.739196 -0.672970
			 0.427675  0.758903  0.491054
			 0.188184  0.770010  0.609595
			-0.048447  0.729828 -0.681910
			 0.206222  0.762742  0.612905
			-0.470312  0.659740 -0.586070
			-0.172447  0.605213  0.777125
			-0.540385  0.514110 -0.666036
			-0.587711  0.474805  0.655064
			-0.848292  0.277744 -0.450811
			-0.803117  0.514922 -0.299714
			-0.747145  0.642177  0.171312
			-0.776913  0.442700  0.447632
			-0.865880  0.371353 -0.335108
			-0.833383  0.552616  0.006019
			-0.816192  0.420148  0.396600
			-0.746699  0.532270 -0.398843
			-0.783850  0.496408  0.373027
			 0.683363  0.637197 -0.356316
			 0.898886  0.424856  0.107105
			 0.842844  0.418487  0.338254
			 0.784685  0.541197  0.302241
			 0.636847  0.761117  0.122748
			 0.633048  0.540178 -0.554444
			 0.914078  0.405466 -0.000001
			 0.963153  0.262446  0.058791
			 0.866725  0.489082  0.097785
			 0.899134  0.437612 -0.002909
			 0.670616  0.580423  0.461852
			 0.165221  0.985558  0.036286
			 0.368035  0.895370  0.250650
			 0.676095  0.366039 -0.639431
			 0.791122  0.587013  0.171758
			 0.830638  0.494498 -0.255838
			 0.524729  0.783285  0.333250
			 0.647397  0.502155  0.573306
			 0.116147  0.992867  0.025873
			 0.082056  0.993014  0.084622
			 0.260795  0.863611  0.431405
			 0.251666  0.528997 -0.810434
			 0.314529  0.768715  0.556870
			 0.080404  0.996732 -0.005951
			 0.064726  0.995468  0.069696
			 0.058810  0.993567  0.096527
			-0.033693  0.679091  0.733281
			 0.177659  0.859061 -0.480008
			 0.052271  0.997071  0.055822
			 0.046335  0.995168  0.086467
			 0.035450  0.862540  0.504743
			-0.071787  0.571223 -0.817613
			-0.189382  0.542284  0.818545
			 0.048303  0.998794  0.004324
			 0.035877  0.996194  0.079143
			 0.033279  0.995007  0.093759
			-0.001301  0.891931 -0.452124
			 0.025853  0.997646  0.063099
			-0.002477  0.995325  0.096441
			-0.262349  0.826417  0.498144
			-0.487846  0.555375 -0.673429
			-0.548504  0.384823  0.742301
			-0.009685  0.999919 -0.003888
			 0.001558  0.995510  0.094443
			-0.271459  0.925268  0.264895
			-0.618067  0.706991 -0.343683
			-0.798803  0.477233 -0.366235
			-0.687102  0.312607  0.655836
			-0.266786  0.880795 -0.391062
			-0.037494  0.998354  0.042736
			-0.254702  0.868210  0.425765
			-0.773080  0.596890 -0.214555
			-0.960281  0.221737 -0.169258
			-0.904828  0.391468  0.167215
			-0.810792  0.413576  0.414123
			-0.121074  0.944696 -0.304720
			-0.196365  0.950569  0.240450
			-0.775017  0.478229 -0.413008
			-0.952490  0.304511  0.000495
			-0.822561  0.420693  0.382617
			-0.745376  0.576088  0.335425
			-0.092711  0.994088  0.056171
			 0.197576  0.975945 -0.091770
			-0.028658  0.941440  0.335857
			 0.324148  0.908639 -0.263128
			 0.170431  0.948632  0.266477
			 0.159165  0.807804 -0.567500
			 0.113508  0.990637  0.075546
			 0.170797  0.830931  0.529477
			 0.037151  0.999298  0.003355
			 0.061755  0.991713  0.112523
			 0.024986  0.736736 -0.675701
			 0.021955  0.997269  0.070473
			 0.082364  0.867145  0.491149
			 0.009498  0.999917 -0.007941
			 0.018973  0.995417  0.093480
			-0.272896  0.714748 -0.643908
			 0.008703  0.997921  0.063758
			-0.025952  0.854327  0.519046
			-0.338342  0.831939 -0.439721
			 0.014289  0.996232  0.085201
			-0.636805  0.733069 -0.238805
			-0.238689  0.882722  0.404667
			-0.060097  0.996055  0.064934
			 0.877266  0.339542 -0.339212
			 0.901215  0.344692  0.262622
			 0.697080  0.523325 -0.490038
			 0.765881  0.642944 -0.004161
			 0.659973  0.382526 -0.646595
			 0.898818  0.438272 -0.002852
			 0.862133  0.337710  0.377654
			 0.957572  0.287947  0.010657
			 0.921433  0.376628 -0.095251
			 0.747999  0.588036  0.307705
			 0.783601  0.610041 -0.117420
			 0.584260  0.771566  0.251519
			 0.972361  0.152059  0.177099
			 0.986263  0.134166 -0.096111
			 0.912926  0.407107  0.027840
			 0.653442  0.503869  0.564862
			 0.657535  0.619735 -0.428403
			 0.424314  0.772658  0.472157
			 0.463905  0.281658 -0.839875
			 0.619446  0.570301 -0.539452
			 0.276916  0.674875  0.683972
			 0.116313  0.584647  0.802899
			 0.352038  0.787930 -0.505170
			 0.126606  0.741523  0.658857
			-0.001025  0.040389 -0.999184
			 0.217557  0.867869 -0.446565
			-0.058128  0.639517  0.766545
			-0.447789  0.391613  0.803802
			 0.082994  0.772512 -0.629488
			 0.070828  0.905653 -0.418056
			-0.017861  0.682050  0.731072
			-0.140696  0.176363 -0.974188
			-0.361909  0.394132  0.844759
			 0.016588  0.904676 -0.425696
			-0.243280  0.563564  0.789406
			-0.087234  0.810613 -0.579024
			-0.113908  0.898486 -0.423941
			-0.494535  0.548256  0.674391
			-0.391937  0.539459 -0.745199
			-0.620920  0.469609  0.627586
			-0.092660  0.880900 -0.464116
			-0.371630  0.791373  0.485330
			-0.667468  0.715744 -0.205295
			-0.866825  0.486665 -0.108384
			-0.650961  0.680949  0.335444
			-0.654643  0.506797  0.560848
			-0.045802  0.890039 -0.453566
			-0.098666  0.920057 -0.379108
			-0.248957  0.898343  0.361864
			-0.688508  0.725147  0.009281
			-0.841981  0.501864 -0.197839
			-0.689770  0.684359  0.236290
			-0.587085  0.706849  0.394533
			 0.134029  0.895075 -0.425204
			 0.097622  0.929706 -0.355030
			-0.197513  0.916793  0.347044
			-0.168260  0.783207  0.598484
			-0.634243  0.720446 -0.280421
			-0.512701  0.797395  0.318181
			 0.220454  0.832949 -0.507469
			 0.443930  0.834795 -0.325535
			-0.138816  0.900040  0.413021
			 0.225000  0.800397 -0.555607
			 0.068094  0.904585  0.420779
			-0.246112  0.762770  0.597958
			 0.025071  0.738918 -0.673261
			-0.030322  0.733676  0.678778
			 0.011663  0.729421 -0.683950
			 0.154951  0.758412  0.633049
			 0.024795  0.680512  0.732308
			-0.044394  0.595462 -0.802149
			 0.026510  0.682105  0.730749
			-0.072448  0.642209  0.763075
			-0.349710  0.505661 -0.788642
			-0.066219  0.682951  0.727435
			-0.530652  0.634036 -0.562437
			-0.770954  0.492874  0.403336
			-0.416161  0.521082  0.745141
			-0.735555  0.589364 -0.333965
			-0.815558  0.412126  0.406193
			-0.683264  0.510788  0.521726
			 0.757700  0.621670  0.198434
			 0.763213  0.645705 -0.022752
			 0.680200  0.555467  0.478258
			 0.998687 -0.034739 -0.037427
			 0.920005  0.219292  0.324739
			 0.844189  0.440969 -0.304714
			 0.909873  0.338309  0.240047
			 0.762519  0.462561 -0.452279
			 0.835387  0.453120 -0.311029
			 0.733655  0.625668  0.265114
			 0.616168  0.524143  0.587858
			 0.785290 -0.003504 -0.619072
			 0.999342 -0.036174 -0.002487
			 0.798152  0.395489  0.454406
			 0.931011  0.002233  0.364934
			 0.960204 -0.015864 -0.278793
			 0.898618  0.438280 -0.018985
			 0.723566  0.464137  0.510861
			 0.785484  0.423239 -0.451490
			 0.605108  0.540929  0.584114
			 0.614568  0.009546 -0.788758
			 0.998418 -0.030567  0.046970
			 0.481530  0.570820  0.665014
			 0.725345  0.644389 -0.242075
			 0.654079  0.545476 -0.524007
			 0.490180  0.565542  0.663191
			 0.436469  0.355119  0.826630
			 0.584376  0.726985 -0.360471
			 0.649461  0.594958 -0.473463
			 0.139825  0.435147  0.889408
			 0.021900  0.039548 -0.998961
			 0.018187  0.597711  0.801467
			 0.368931  0.679394 -0.634266
			 0.585031  0.729958 -0.353346
			 0.026511  0.682137  0.730710
			-0.348910  0.332270  0.876243
			 0.144998  0.789161 -0.596793
			-0.117636  0.448026  0.886219
			-0.001025  0.040389 -0.999184
			-0.402402  0.602883  0.688885
			 0.024986  0.736736 -0.675701
			-0.266380  0.466837  0.843257
			-0.312079  0.503474  0.805652
			 0.025003  0.737156 -0.675214
			-0.084089  0.116315 -0.989614
			-0.481626  0.521028  0.704643
			 0.024986  0.736736 -0.675701
			-0.426623  0.428957  0.796192
			-0.533534  0.611289  0.584463
			-0.045398  0.789612 -0.611902
			-0.353537  0.555761  0.752393
			-0.386438  0.511545 -0.767410
			-0.273591  0.792674  0.544770
			-0.183709  0.674019  0.715465
			-0.652128  0.710662 -0.263874
			-0.678832  0.733649  0.030352
			-0.233079  0.857636  0.458372
			 0.036948  0.737047 -0.674820
			-0.194316  0.512572  0.836334
			-0.669683  0.742581  0.006303
			-0.510472  0.837977 -0.192729
			-0.637623  0.764258  0.096380
			-0.199764  0.933087  0.298975
			-0.093251  0.917479  0.386627
			-0.249606  0.780155  0.573574
			-0.621035  0.752680 -0.218552
			-0.472006  0.858514  0.200292
			-0.071467  0.950657  0.301846
			 0.048729  0.662509 -0.747432
			-0.275287  0.598294  0.752471
			-0.446431  0.885312 -0.129922
			-0.104196  0.986664  0.124839
			-0.336746  0.522672  0.783185
			-0.169397  0.982872 -0.072318
			-0.091694  0.976410  0.195409
			-0.098641  0.632087 -0.768557
			 0.026431  0.679797  0.732907
			-0.138845  0.987481  0.074496
			-0.304078  0.459928 -0.834234
			-0.011173  0.438982  0.898415
			-0.333167  0.426362 -0.840905
			 0.026432  0.679830  0.732839
			-0.190442  0.234804 -0.953160
			-0.149351  0.433945  0.888435
			-0.540191  0.228597  0.809888
			-0.537851  0.333339 -0.774308
			-0.737101  0.089781  0.669738
			-0.715692  0.329780 -0.615610
			-0.840979  0.208792  0.499112
			-0.971674  0.205032 -0.117349
			 0.845901  0.493160  0.202997
			 0.866055  0.285974 -0.410012
			 0.789731  0.441252  0.426110
			 0.887160  0.218338 -0.406483
			 0.633669  0.495817  0.593801
			 0.841454 -0.008727 -0.540216
			 0.999342 -0.036174 -0.002487
			 0.997026 -0.033399 -0.069117
			 0.932738  0.198665  0.300813
			 0.777915  0.440335 -0.448189
			 0.841505  0.382602 -0.381381
			 0.455759  0.394896  0.797663
			 0.679241  0.004982 -0.733874
			 0.999070 -0.035274 -0.024529
			 0.904502 -0.049934  0.423492
			 0.998632 -0.037682  0.035483
			 0.846148 -0.009194 -0.532864
			 0.999342 -0.036174 -0.002487
			 0.715064  0.237420  0.657453
			 0.833902  0.376963 -0.403049
			 0.853557  0.372152 -0.364582
			 0.703137  0.513060 -0.492271
			 0.524151  0.470223  0.710004
			 0.902318 -0.050042  0.428124
			 0.937910 -0.020062 -0.346244
			 0.383857  0.381296  0.840973
			 0.881781  0.347086 -0.319306
			 0.688762  0.586311 -0.426344
			 0.216838  0.171803  0.960941
			 0.315729  0.026842 -0.948454
			 0.125778  0.674113  0.727822
			 0.491953  0.479545 -0.726599
			 0.008017  0.291435  0.956543
			 0.001083 -0.038800  0.999218
			-0.001025  0.040389 -0.999184
			-0.092825  0.680560  0.726735
			 0.120354  0.559897 -0.819739
			-0.281702  0.474335  0.834038
			-0.223910  0.207299  0.952290
			 0.015724  0.099476 -0.994901
			-0.216503  0.644538  0.733223
			 0.018233  0.560636 -0.827831
			-0.313225  0.378284  0.871061
			 0.293446  0.480946 -0.826141
			-0.227791  0.687337  0.689647
			-0.011392  0.340939 -0.939986
			-0.152652  0.821360  0.549559
			-0.097078  0.618288 -0.779905
			-0.440434  0.398479  0.804482
			 0.024992  0.736888 -0.675505
			-0.114779  0.851567  0.511489
			-0.256476  0.506702 -0.823074
			-0.307179  0.381346  0.871869
			-0.241041  0.657972 -0.713381
			-0.145709  0.861907  0.485607
			 0.032924  0.876544  0.480141
			-0.330318  0.425845 -0.842310
			-0.163190  0.528694  0.832951
			-0.473996  0.489201 -0.732074
			-0.523161  0.815234 -0.248300
			-0.628321  0.775066 -0.066516
			 0.024196  0.878324  0.477399
			-0.152234  0.229927 -0.961222
			-0.214366  0.419376  0.882098
			-0.441902  0.802888 -0.400006
			-0.567340  0.823391  0.011006
			-0.502514  0.824004 -0.261578
			-0.080617  0.932084  0.353107
			 0.037904  0.877715  0.477681
			-0.255229  0.945905 -0.200198
			-0.136077  0.980984 -0.138353
			-0.432896  0.887842 -0.155885
			-0.070243  0.959708  0.272025
			 0.059263  0.895919  0.440204
			-0.001025  0.040389 -0.999184
			-0.348618  0.416961  0.839383
			-0.133633  0.971268 -0.196795
			-0.060457  0.992567 -0.105526
			-0.100245  0.991049 -0.087972
			-0.224476  0.957808 -0.179362
			-0.071157  0.959609  0.272082
			 0.114235  0.911002  0.396221
			-0.310398  0.361867  0.878991
			-0.096515  0.990360 -0.099073
			-0.094995  0.991677 -0.086671
			-0.053152  0.994534 -0.089631
			-0.099081  0.993418 -0.057162
			-0.080716  0.978454  0.189976
			 0.072083  0.927915  0.365702
			-0.299091  0.336344 -0.892958
			-0.105342  0.990894 -0.083529
			-0.066496  0.993472 -0.092502
			-0.091984  0.985524 -0.142348
			-0.088753  0.993215  0.074957
			-0.072249  0.977738  0.196884
			 0.099952  0.936944  0.334823
			-0.169551  0.073153  0.982771
			-0.074483  0.992412 -0.097761
			-0.047474  0.990811 -0.126537
			-0.091005  0.995828  0.000624
			-0.104744  0.984080  0.143440
			-0.085320  0.962428  0.257669
			-0.122978  0.635781 -0.762008
			-0.058966  0.986820 -0.150546
			-0.062155  0.994488 -0.084119
			-0.089830  0.991372  0.095270
			-0.116931  0.977915  0.173128
			-0.067461  0.976510  0.204616
			-0.326543  0.485412 -0.810972
			-0.538722 -0.014463  0.842346
			-0.064751  0.984367 -0.163720
			-0.081603  0.996182  0.030033
			-0.120535  0.980497  0.155101
			-0.316762  0.927150  0.199994
			-0.038989  0.977540 -0.207027
			-0.710344  0.013890  0.703704
			-0.045964  0.980759 -0.189716
			-0.101618  0.992830 -0.062658
			-0.142119  0.983457  0.112118
			-0.425800  0.845606  0.321912
			-0.440154  0.886729 -0.141130
			-0.996552  0.039121 -0.072988
			-0.764397  0.001711  0.644689
			-0.243500  0.962662 -0.118056
			-0.317134  0.945398  0.074820
			-0.488315  0.795427  0.358890
			-0.895732  0.245980 -0.370289
			-0.961308  0.023812  0.274421
			-0.369500  0.929153 -0.011263
			 0.904775  0.273642  0.326271
			 0.945839  0.222658 -0.236139
			 0.998604  0.042174 -0.031656
			 0.767511  0.207277  0.606550
			 0.956093  0.025156 -0.291952
			 0.840749  0.174451 -0.512514
			 0.522093  0.251361  0.815002
			 0.998687 -0.034739 -0.037427
			 0.886232 -0.050761  0.460387
			 0.842055 -0.008788 -0.539248
			 0.999342 -0.036174 -0.002487
			 0.879028 -0.003983 -0.476701
			 0.777218 -0.033191 -0.628340
			 0.999342 -0.036174 -0.002487
			 0.923595 -0.048879  0.380200
			 0.958741 -0.023360 -0.283287
			 0.998461 -0.034488 -0.043452
			 0.934083  0.045564  0.354042
			 0.838876  0.487047 -0.242917
			 0.821550  0.237963 -0.518034
			 0.135689  0.079155  0.987554
			 0.542642 -0.137204 -0.828654
			 0.997899 -0.038307  0.051632
			 0.609532  0.298675  0.734318
			 0.609207  0.279810 -0.741959
			 0.893188  0.332116 -0.303059
			 0.198554  0.383436  0.901959
			 0.001025 -0.040389  0.999184
			 0.105815 -0.054598 -0.992874
			 0.165242  0.220161 -0.961342
			 0.007463  0.455983  0.889946
			 0.001025 -0.040389  0.999184
			 0.086145  0.122118 -0.988743
			 0.001068  0.097926 -0.995169
			 0.340909  0.417965 -0.842066
			-0.033784  0.638758  0.768651
			-0.137031  0.105032  0.984967
			-0.045075  0.734805  0.676747
			 0.001068  0.097926 -0.995169
			-0.322174  0.367885  0.872241
			 0.101998  0.557593 -0.823787
			 0.017681  0.699458  0.714445
			-0.449650  0.205205  0.869299
			-0.088673  0.860803  0.501107
			-0.244318  0.337913 -0.908874
			-0.326159  0.156932  0.932184
			-0.108578  0.637229 -0.762965
			 0.022116  0.733736  0.679036
			 0.031122  0.878707  0.476317
			-0.426358  0.305209 -0.851491
			-0.187139  0.337804  0.922398
			-0.262924  0.584104 -0.767886
			 0.174104  0.800991  0.572760
			-0.234582  0.121104 -0.964496
			-0.316074  0.385568  0.866824
			-0.155121  0.914958 -0.372471
			 0.105779  0.898084  0.426853
			 0.357801  0.792803  0.493366
			-0.053663  0.853678 -0.517979
			-0.138719  0.984417 -0.107907
			 0.146937  0.931750  0.331913
			 0.082001  0.184205 -0.979444
			-0.421184  0.189560  0.886902
			-0.187679  0.970388 -0.151959
			 0.081895  0.936019  0.342220
			 0.286699  0.885787  0.364910
			 0.462737  0.886329 -0.015809
			-0.381390  0.293599  0.876525
			-0.109953  0.813309 -0.571285
			-0.122545  0.989380 -0.077948
			 0.111654  0.957592  0.265588
			 0.370571  0.892226  0.258027
			 0.018480  0.531696 -0.846706
			-0.090158  0.979630 -0.179328
			-0.095591  0.992614 -0.074372
			 0.092798  0.956815  0.275494
			 0.070213  0.994323  0.079713
			 0.463188  0.884032  0.062251
			-0.365085 -0.024331  0.930621
			-0.142649  0.732825 -0.665269
			-0.107546  0.993051 -0.047410
			-0.058263  0.989491 -0.132274
			 0.041699  0.983371  0.176659
			 0.053831  0.998210 -0.025600
			 0.203273  0.932258 -0.299170
			-0.674735 -0.006815  0.738019
			-0.167151  0.982519 -0.081713
			-0.069327  0.987655 -0.140343
			-0.064788  0.983048 -0.171460
			-0.090424  0.983929  0.153898
			 0.012039  0.998663  0.050333
			 0.029726  0.995640 -0.088360
			-0.768090 -0.178441  0.614952
			-0.446241  0.859951 -0.247542
			-0.065746  0.978016 -0.197753
			-0.332521  0.937493  0.102379
			-0.087027  0.990122  0.109829
			-0.052674  0.998285 -0.024737
			-0.166059  0.981535 -0.094794
			-0.643501  0.715410 -0.272138
			-0.988084  0.110286  0.107115
			-0.902613 -0.256779  0.345366
			-0.331571  0.870547 -0.363517
			-0.098279  0.975236 -0.198113
			-0.538888  0.808570  0.236122
			-0.685875  0.717939  0.118707
			-0.264938  0.964219  0.006751
			-0.142103  0.989247  0.034438
			-0.154773  0.985671 -0.066996
			-0.777103  0.608375  0.161090
			-0.999596  0.020306  0.018950
			-0.104394  0.972775 -0.206833
			-0.264877  0.960249 -0.087927
			-0.465313  0.873932  0.140329
			-0.616831  0.702487  0.354955
			-0.512559  0.831764 -0.213085
			-0.241059  0.968247  0.066067
			-0.243424  0.969608 -0.023518
			-0.667215  0.681949  0.299501
			-0.429198  0.762894 -0.483453
			-0.257539  0.963310 -0.075110
			-0.414159  0.910088  0.012692
			-0.728086  0.571434  0.378575
			-0.570390  0.811014 -0.129886
			-0.318665  0.947046  0.038608
			-0.451034  0.891545  0.040784
			-0.548093  0.774633 -0.315379
			-0.502181  0.864163  0.031723
			-0.679279  0.653728  0.333402
			 0.999342 -0.036174 -0.002487
			 0.966509  0.153300 -0.205717
			 0.973681 -0.044367  0.223453
			 0.800842  0.157374 -0.577776
			 0.697716 -0.054173  0.714300
			 0.810029 -0.344257 -0.474622
			 0.999202 -0.039019 -0.005575
			 0.997327 -0.030523 -0.066219
			 0.999645 -0.012438  0.023242
			 0.844889  0.378272 -0.378147
			 0.991287 -0.038470 -0.125863
			 0.785198 -0.155013 -0.599495
			 0.360560 -0.050700  0.931343
			 0.997816 -0.060445 -0.025545
			 0.645965 -0.451672 -0.615377
			 0.904502 -0.049934  0.423492
			 0.921267  0.385004 -0.054529
			 0.868492  0.113089 -0.482597
			 0.999342 -0.036174 -0.002487
			 0.801551  0.210980  0.559406
			 0.951361  0.302451 -0.058467
			 0.871939 -0.350944 -0.341377
			 0.527448 -0.451388 -0.719729
			 0.925803  0.000956  0.377928
			 0.895883  0.316504 -0.311700
			 0.562473  0.330000  0.758061
			 0.741170  0.182425 -0.646009
			 0.005522 -0.040550  0.999142
			 0.307142 -0.394929 -0.865812
			 0.227622  0.601476  0.765745
			 0.391654  0.194693 -0.899242
			 0.026431  0.679797  0.732907
			 0.343432  0.921755 -0.179960
			 0.001025 -0.040389  0.999184
			 0.411610 -0.271101 -0.870082
			 0.099126  0.805472  0.584247
			 0.000550  0.417151 -0.908804
			 0.463118  0.240090 -0.853134
			 0.026431  0.679797  0.732907
			-0.373647  0.898708 -0.229477
			-0.008059 -0.040057  0.999146
			 0.028262  0.738004  0.674199
			-0.040047  0.222866 -0.974003
			 0.150293  0.169110 -0.974059
			 0.026431  0.679797  0.732907
			 0.026611  0.685100  0.727927
			-0.389740 -0.023031  0.920601
			 0.088309  0.724584  0.683483
			 0.004079  0.180311 -0.983585
			-0.590445 -0.011157  0.806973
			-0.001025  0.040389 -0.999184
			 0.026431  0.679797  0.732907
			 0.026611  0.685100  0.727927
			 0.138055  0.732472  0.666616
			-0.317755  0.357120 -0.878308
			-0.123431 -0.035569  0.991690
			-0.270147  0.393003 -0.878948
			 0.107848  0.730934  0.673831
			 0.433830  0.832929  0.343507
			-0.225208  0.631538 -0.741868
			 0.333694  0.837913  0.431853
			 0.279133  0.935867 -0.214943
			-0.438600 -0.020362  0.898421
			 0.124524  0.370213 -0.920557
			 0.399931  0.883950  0.242149
			 0.134725  0.688581 -0.712499
			-0.497607 -0.097951  0.861818
			 0.332947  0.837981  0.432327
			 0.337745  0.941227  0.001890
			-0.201413  0.417798 -0.885893
			 0.473387  0.842140  0.258179
			 0.456271  0.623393 -0.634928
			-0.461264 -0.249324  0.851478
			-0.408768 -0.201067  0.890185
			-0.003566  0.614748 -0.788691
			-0.454616 -0.482638  0.748554
			-0.544828 -0.307690  0.780018
			-0.480225  0.423286 -0.768199
			-0.804168 -0.429608  0.410748
			-0.746490 -0.350671  0.565434
			-0.598432  0.512068 -0.616118
			-0.857200 -0.468516  0.213660
			-0.868214 -0.353528  0.348086
			-0.719967 -0.500343  0.480892
			-0.478128  0.780124 -0.403391
			-0.951317 -0.305347  0.041867
			-0.335117  0.820112 -0.463722
			-0.674032  0.736046 -0.062072
			-0.800580  0.004863  0.599166
			-0.621938  0.606831 -0.494887
			-0.633953  0.644330 -0.427646
			-0.787621  0.471188 -0.396956
			-0.747783  0.463789  0.475046
			-0.786949  0.555374  0.268707
			-0.690475  0.705184 -0.160942
			-0.730111  0.683136  0.015162
			-0.730147  0.682000  0.041107
			-0.824365  0.039609  0.564626
			-0.751030  0.502804 -0.427862
			-0.791775  0.538810 -0.287661
			-0.798998  0.526793  0.289922
			-0.765023  0.451663  0.459021
			-0.854680  0.516295 -0.054006
			-0.881592  0.471562  0.019966
			-0.896490  0.171494  0.408459
			-0.871176  0.489955 -0.030964
			 0.990151 -0.030431 -0.136445
			 0.942502 -0.047566  0.330693
			 0.831195 -0.007721 -0.555898
			 0.999316 -0.036326  0.001290
			 0.780099 -0.053489  0.623329
			 0.722097  0.001726 -0.691765
			 0.505463 -0.053127  0.861199
			 0.847428 -0.422992 -0.320775
			 0.871573 -0.412176  0.265336
			 0.866006  0.013535 -0.499779
			 0.997995  0.046037 -0.042949
			 0.999342 -0.036174 -0.002487
			 0.906616 -0.049827  0.418930
			 0.993835 -0.030815 -0.106190
			 0.975075 -0.026503 -0.220160
			 0.738626 -0.303610 -0.601821
			 0.864839 -0.500154 -0.043092
			 0.977657 -0.130877  0.164406
			 0.968303  0.247237 -0.034945
			 0.710597 -0.493250 -0.501690
			 0.999342 -0.036174 -0.002487
			 0.999342 -0.036174 -0.002487
			 0.759388 -0.053749  0.648390
			 0.826648  0.186994 -0.530698
			 0.999342 -0.036174 -0.002487
			 0.075813 -0.042982  0.996190
			 0.790043  0.418218  0.448167
			 0.660231  0.437217 -0.610647
			 0.397587 -0.149909 -0.905201
			 0.634788  0.766050 -0.100703
			 0.001025 -0.040389  0.999184
			 0.497157 -0.199008 -0.844487
			 0.001025 -0.040389  0.999184
			 0.627418 -0.163411 -0.761305
			 0.381448 -0.318298 -0.867835
			 0.015198  0.993382  0.113789
			-0.081234 -0.037274  0.995981
			 0.043956  0.841159 -0.538982
			 0.152204 -0.241384 -0.958408
			 0.109097  0.983488  0.144198
			-0.490444 -0.017384  0.871292
			 0.061716  0.861126 -0.504565
			-0.345591 -0.025338  0.938037
			-0.001025  0.040389 -0.999184
			 0.145928  0.985211  0.089495
			 0.174054  0.905900 -0.386025
			-0.295136 -0.027855  0.955017
			-0.001025  0.040389 -0.999184
			-0.619706 -0.023206  0.784458
			-0.570345 -0.190666  0.798946
			-0.001025  0.040389 -0.999184
			-0.361058 -0.398556  0.843051
			-0.484550 -0.396984  0.779479
			-0.001025  0.040389 -0.999184
			-0.544457 -0.547602  0.635340
			-0.608050 -0.574009  0.548387
			-0.524369  0.053352 -0.849782
			-0.636949 -0.549435  0.540683
			-0.913590 -0.350811  0.205525
			-0.729592 -0.491126  0.475830
			-0.514981  0.053243 -0.855520
			-0.812237 -0.213237  0.542913
			-0.889087 -0.359056  0.283761
			-0.758369 -0.583864  0.289712
			-0.467958  0.312810 -0.826501
			-0.737363 -0.042991  0.674100
			-0.588347  0.583110 -0.560143
			-0.887756 -0.099530  0.449347
			-0.639748  0.416322 -0.646057
			-0.712318  0.530058 -0.460017
			-0.785568  0.470193 -0.402193
			-0.726304  0.503970  0.467361
			-0.816178  0.567098 -0.110629
			-0.999342  0.036174  0.002487
			-0.999342  0.036174  0.002487
			-0.847916 -0.161277  0.504958
			-0.755817  0.507780 -0.413364
			-0.821004  0.434994 -0.369671
			-0.943031  0.332368  0.014402
			-0.835025  0.404314  0.373120
			-0.799785  0.592940  0.093254
			-0.992511  0.121764  0.006661
			-0.999342  0.036174  0.002487
			-0.968398  0.013800  0.248973
			-0.954860  0.241283 -0.173077
			-0.935212  0.341764  0.092397
			-0.771358  0.588776  0.241488
			 0.999342 -0.036174 -0.002487
			 0.953475 -0.205791 -0.220219
			 0.973044 -0.050195  0.224999
			 0.778471 -0.326130 -0.536278
			 0.600453 -0.184847  0.777964
			 0.843696 -0.091043 -0.528974
			 0.999342 -0.036174 -0.002487
			 0.999342 -0.036174 -0.002487
			 0.996469  0.033040 -0.077090
			 0.999306 -0.035904 -0.009142
			 0.781037 -0.003133 -0.624437
			 0.290391 -0.253911  0.922570
			 0.870756 -0.467378 -0.152514
			 0.864174 -0.498525  0.068195
			 0.811253 -0.184687 -0.554714
			 0.998584 -0.034620 -0.040295
			 0.999342 -0.036174 -0.002487
			 0.935433  0.045215  0.350564
			 0.946734  0.314643  0.068323
			 0.812833  0.254107 -0.524088
			 0.999342 -0.036174 -0.002487
			 0.937339 -0.019980 -0.347742
			 0.676245 -0.294119 -0.675374
			 0.882570 -0.469656 -0.020670
			 0.990469 -0.135621 -0.022761
			 0.818039  0.281796  0.501392
			 0.783826  0.563158 -0.261612
			 0.010799 -0.064973  0.997799
			 0.456614 -0.162578 -0.874659
			 0.001025 -0.040389  0.999184
			 0.473374 -0.132738 -0.870777
			 0.455311 -0.373431 -0.808209
			-0.008059 -0.040057  0.999146
			 0.200198 -0.390854 -0.898385
			 0.058267 -0.617872 -0.784095
			-0.389740 -0.023031  0.920601
			-0.590445 -0.011157  0.806973
			 0.247987 -0.436057 -0.865042
			-0.123431 -0.035569  0.991690
			 0.153759 -0.231175 -0.960649
			-0.451098 -0.019658  0.892237
			-0.001025  0.040389 -0.999184
			-0.689585 -0.004214  0.724158
			-0.690655 -0.055124  0.721040
			-0.001025  0.040389 -0.999184
			-0.643030 -0.259015  0.720666
			-0.673940 -0.372996  0.637677
			-0.018703  0.041021 -0.998950
			-0.702838 -0.385695  0.597691
			-0.548058  0.053603 -0.834705
			-0.797004 -0.018572  0.603650
			-0.787532 -0.390076  0.477032
			-0.360690  0.050702 -0.931283
			-0.703940 -0.003131  0.710235
			-0.885678 -0.287820  0.364241
			-0.630971  0.054156 -0.773888
			-0.824128  0.007044  0.566312
			-0.784910  0.003471  0.619541
			-0.716166  0.057899 -0.695495
			-0.989940  0.113981  0.083747
			-0.999342  0.036174  0.002487
			-0.975828  0.026666  0.216784
			-0.926477  0.018453  0.375812
			-0.788764  0.223595 -0.572538
			-0.929624  0.363403  0.060900
			-0.887683  0.338499  0.312026
			-0.998668  0.048632  0.015781
			-0.999342  0.036174  0.002487
			-0.955140  0.230035 -0.186412
			-0.778545  0.605583 -0.164498
			-0.787016  0.450410  0.421532
			-0.905153  0.341177  0.253504
			-0.839369  0.420964 -0.343758
			-0.837867  0.528746  0.135415
			-0.735171  0.536397 -0.414420
			 0.767477 -0.570188  0.292923
			 0.898846 -0.265314 -0.348792
			 0.868325 -0.489499 -0.079946
			 0.614538 -0.513516  0.598809
			 0.819631 -0.041107 -0.571377
			 0.790524 -0.472350 -0.389766
			 0.685124 -0.699468  0.203273
			 0.997249 -0.033545 -0.065711
			 0.999342 -0.036174 -0.002487
			 0.999634 -0.012735  0.022920
			 0.843306 -0.008911 -0.537323
			 0.999342 -0.036174 -0.002487
			 0.975075 -0.026503 -0.220160
			 0.478413 -0.386543  0.788451
			 0.998687 -0.034732 -0.037617
			 0.999342 -0.036174 -0.002487
			 0.845838 -0.009164 -0.533333
			 0.999342 -0.036174 -0.002487
			 0.999342 -0.036174 -0.002487
			 0.861566  0.330379  0.385365
			 0.979814  0.038886 -0.195964
			 0.997279 -0.033557 -0.065431
			 0.999342 -0.036174 -0.002487
			 0.351943 -0.168849  0.920631
			 0.904167 -0.120199 -0.409896
			 0.999312 -0.036148 -0.003117
			 0.935715 -0.019745 -0.352104
			 0.868140  0.332645  0.368226
			 0.600125 -0.037929 -0.798959
			 0.029476 -0.041402  0.998703
			 0.292302 -0.151522 -0.944220
			 0.001025 -0.040389  0.999184
			 0.294448 -0.399921 -0.867943
			-0.081234 -0.037274  0.995981
			 0.164777 -0.137168 -0.976726
			 0.329096 -0.356187 -0.874527
			-0.490444 -0.017384  0.871292
			 0.105481 -0.240174 -0.964966
			-0.348509 -0.033159  0.936693
			 0.363700 -0.146836 -0.919834
			-0.327528 -0.189761  0.925547
			 0.299013  0.097244 -0.949244
			-0.558316 -0.189026  0.807787
			 0.225275  0.561915 -0.795876
			-0.704400 -0.003094  0.709737
			-0.002235  0.266311 -0.963869
			-0.337289  0.422274 -0.841346
			-0.731184 -0.025685  0.681679
			-0.025748  0.075150 -0.996812
			-0.751570 -0.220128  0.621827
			-0.723471 -0.421960  0.546335
			-0.524369  0.053352 -0.849782
			-0.766105 -0.559966  0.315426
			-0.747537 -0.456800  0.482150
			-0.514981  0.053243 -0.855520
			-0.680420 -0.351934  0.642728
			-0.520564  0.053309 -0.852139