<?xml version="1.0"?>
<VTKFile type="PolyData" version="0.1" byte_order="LittleEndian" compressor="vtkZLibDataCompressor">
	<PolyData>
		<Piece NumberOfPoints="14321" NumberOfVerts="0" NumberOfLines="0" NumberOfStrips="0" NumberOfPolys="28626">
		<PointData Normals="Normals">
		<DataArray type="Float32" Name="Normals" NumberOfComponents="3" format="ascii">
			-0.016430 -0.843440  0.536901
			 0.192522 -0.915343  0.353628
			 0.363170 -0.848500  0.384846
			-0.158953 -0.859158  0.486333
			 0.035754 -0.969369  0.242889
			 0.238737 -0.930073  0.279143
			 0.307992 -0.892191  0.330311
			 0.161486 -0.929845  0.330519
			 0.305376 -0.911041  0.276958
			 0.006008 -0.995840 -0.090724
			 0.009884 -0.996110 -0.087311
			 0.011997 -0.995989 -0.088421
			 0.134112 -0.974577  0.179489
			 0.174829 -0.956268  0.234399
			 0.390138 -0.911751  0.128402
			 0.004855 -0.995809 -0.091126
			 0.007006 -0.995574 -0.093419
			 0.007871 -0.995544 -0.093675
			 0.009380 -0.995579 -0.093202
			 0.009891 -0.996104 -0.087377
			 0.011373 -0.996028 -0.088063
			 0.384673 -0.919606 -0.079370
			-0.148594 -0.969335  0.195622
			 0.005895 -0.995554 -0.093709
			 0.007312 -0.995533 -0.093829
			 0.008363 -0.995511 -0.093984
			 0.007797 -0.995550 -0.093615
			 0.007773 -0.995440 -0.094764
			 0.250227 -0.954864 -0.160036
			-0.345305 -0.916429  0.202142
			 0.005456 -0.995496 -0.094343
			 0.006239 -0.995470 -0.094558
			 0.007424 -0.995449 -0.094699
			 0.007947 -0.995484 -0.094298
			 0.007921 -0.995392 -0.095254
			 0.009034 -0.995021 -0.099043
			 0.301417 -0.893981 -0.331525
			 0.002088 -0.995391 -0.095679
			 0.005131 -0.995380 -0.095583
			 0.006367 -0.995305 -0.096273
			 0.007037 -0.995324 -0.096021
			 0.007478 -0.995309 -0.096153
			 0.007766 -0.995208 -0.097183
			 0.200062 -0.869353 -0.451834
			-0.407015 -0.897137 -0.171700
			 0.002386 -0.995181 -0.097850
			 0.005465 -0.995241 -0.097002
			 0.006116 -0.995198 -0.097402
			 0.006682 -0.995203 -0.097314
			 0.007714 -0.995162 -0.097663
			 0.089701 -0.872739 -0.479842
			-0.397123 -0.840192 -0.369182
			 0.004863 -0.995261 -0.096843
			 0.005934 -0.995178 -0.097632
			 0.006022 -0.995167 -0.097739
			 0.007138 -0.995155 -0.097779
			 0.152147 -0.899170 -0.410233
			-0.427703 -0.832948 -0.351062
			 0.005240 -0.995072 -0.098777
			 0.005496 -0.995043 -0.099063
			 0.005659 -0.995049 -0.098996
			 0.109651 -0.885489 -0.451483
			-0.388425 -0.814883 -0.430171
			-0.019025 -0.987462 -0.156608
			-0.006407 -0.989160 -0.146477
			-0.057520 -0.870660 -0.488483
			-0.302974 -0.819406 -0.486554
			-0.074716 -0.846847 -0.526514
			-0.060522 -0.819873  0.569264
			 0.398426 -0.818381  0.414062
			 0.036623 -0.751929  0.658201
			 0.166672 -0.890131  0.424079
			 0.477179 -0.745690  0.464975
			 0.228968 -0.819181  0.525799
			 0.225271 -0.827111  0.514888
			 0.463953 -0.825336  0.321699
			-0.093146 -0.852316  0.514599
			 0.054205 -0.885902  0.460650
			 0.267179 -0.907152  0.325009
			 0.306438 -0.876702  0.370752
			 0.200980 -0.880290  0.429725
			 0.284063 -0.900705  0.328649
			 0.368034 -0.823724  0.431247
			-0.335658 -0.725209  0.601108
			 0.199752 -0.926239  0.319543
			 0.174167 -0.934295  0.310998
			 0.361985 -0.894440  0.262422
			 0.354719 -0.873232  0.334056
			-0.308322 -0.709661  0.633465
			-0.227866 -0.850713  0.473587
			 0.305479 -0.933470  0.187794
			 0.431914 -0.899872 -0.060518
			-0.141805 -0.777757  0.612330
			-0.246439 -0.848348  0.468551
			 0.272335 -0.951443 -0.143328
			-0.348420 -0.854208  0.385876
			-0.295436 -0.883886  0.362556
			 0.316394 -0.913162 -0.256903
			 0.333217 -0.826745 -0.453216
			-0.368422 -0.901398  0.227374
			 0.401896 -0.753545 -0.520189
			-0.655810 -0.734007  0.176416
			-0.388145 -0.921432  0.016524
			 0.273218 -0.878862 -0.391032
			-0.458080 -0.883393 -0.098699
			 0.140510 -0.852770 -0.502988
			 0.370907 -0.643037 -0.669981
			-0.377958 -0.878725 -0.291503
			 0.144980 -0.797901 -0.585055
			 0.230327 -0.653867 -0.720680
			-0.671692 -0.640597 -0.372062
			-0.386903 -0.847747 -0.362689
			 0.234977 -0.756221 -0.610652
			 0.108483 -0.722371 -0.682906
			-0.498372 -0.762559 -0.412425
			-0.460239 -0.797390 -0.390197
			-0.215037 -0.655071 -0.724292
			 0.085763 -0.737176 -0.670209
			 0.154437 -0.706877 -0.690223
			-0.455646 -0.774644 -0.438480
			-0.396400 -0.752374 -0.526069
			-0.167592 -0.849047 -0.501010
			-0.048066 -0.725312 -0.686700
			-0.190251 -0.659560 -0.727142
			 0.183830 -0.627102 -0.756910
			-0.353296 -0.731609 -0.582994
			-0.465723 -0.664647 -0.584172
			 0.015599 -0.650434 -0.759369
			-0.209113 -0.638627 -0.740506
			-0.000776 -0.601624 -0.798727
			-0.287856 -0.654681 -0.698901
			 0.214835 -0.784410  0.581846
			 0.043251 -0.942436  0.331510
			 0.295864 -0.885627  0.357891
			 0.017036 -0.842229  0.538820
			 0.000175 -0.956394  0.292022
			 0.053918 -0.996391  0.065393
			 0.318873 -0.946948 -0.039602
			-0.054873 -0.931059  0.360681
			 0.051258 -0.997846  0.040158
			 0.013285 -0.991615 -0.128377
			 0.051983 -0.988750 -0.140087
			 0.299223 -0.861614 -0.409892
			-0.049680 -0.921122  0.386061
			-0.001534 -0.996910 -0.078427
			 0.019133 -0.991473 -0.128704
			 0.018655 -0.987674 -0.155260
			 0.240369 -0.857372 -0.455086
			-0.117882 -0.944755  0.305827
			 0.001647 -0.994692 -0.102682
			 0.016059 -0.991283 -0.130592
			 0.019775 -0.987933 -0.153527
			 0.153339 -0.827162 -0.540610
			-0.132809 -0.928721  0.346117
			-0.006641 -0.994617 -0.103330
			 0.012458 -0.991545 -0.129165
			 0.020849 -0.987799 -0.154216
			 0.127399 -0.822739 -0.553911
			-0.280463 -0.936325  0.211223
			-0.026553 -0.995842 -0.087167
			 0.007141 -0.991914 -0.126645
			 0.020809 -0.988114 -0.152194
			 0.037711 -0.981622 -0.186929
			-0.066518 -0.995672 -0.064563
			-0.005551 -0.992144 -0.124841
			 0.019558 -0.988579 -0.149424
			 0.035830 -0.982068 -0.185025
			-0.406006 -0.910948  0.072897
			-0.027912 -0.992065 -0.122343
			 0.013607 -0.988996 -0.147069
			 0.029288 -0.983444 -0.178692
			-0.067639 -0.992447 -0.102248
			-0.001954 -0.989555 -0.144030
			 0.021457 -0.985937 -0.165724
			 0.317902 -0.485584 -0.814326
			-0.410294 -0.911120  0.038350
			-0.020818 -0.990183 -0.138212
			 0.017299 -0.986590 -0.162153
			 0.202919 -0.797643 -0.567891
			-0.069579 -0.989662 -0.125137
			 0.005274 -0.988210 -0.152927
			 0.205992 -0.803053 -0.559128
			-0.412481 -0.896578 -0.161162
			-0.041910 -0.986642 -0.157263
			 0.208125 -0.782238 -0.587149
			-0.302609 -0.868636 -0.392233
			 0.009629 -0.734315 -0.678679
			-0.241496 -0.803631 -0.543876
			 0.262142 -0.531901  0.805179
			 0.048916 -0.482263  0.874643
			 0.444086 -0.532613  0.720473
			 0.058431 -0.735888  0.674560
			 0.214981 -0.764002  0.608311
			 0.625496 -0.583600  0.517840
			 0.344915 -0.436040  0.831197
			 0.219867 -0.627189  0.747169
			 0.548726 -0.618817  0.562042
			 0.014960 -0.745820  0.665963
			 0.367699 -0.577221  0.729066
			 0.310952 -0.544267  0.779129
			 0.277619 -0.755115  0.593878
			 0.488502 -0.676423  0.551157
			 0.326240 -0.817032  0.475374
			-0.360385 -0.666144  0.652922
			 0.326970 -0.800843  0.501666
			 0.478721 -0.849283  0.222502
			-0.352439 -0.671880  0.651391
			 0.473456 -0.845070  0.248264
			 0.586757 -0.809637 -0.011848
			 0.039351 -0.751670  0.658310
			 0.469835 -0.882006 -0.035541
			-0.305684 -0.863218  0.401691
			 0.379764 -0.845923 -0.374377
			 0.514305 -0.705517 -0.487502
			-0.336075 -0.898384  0.282684
			 0.332477 -0.796147 -0.505503
			-0.586221 -0.784476  0.202205
			 0.307107 -0.745680 -0.591270
			-0.533181 -0.845407 -0.031410
			 0.388599 -0.717937 -0.577530
			 0.328156 -0.732163 -0.596831
			-0.679300 -0.733434 -0.024684
			 0.301496 -0.808904 -0.504703
			-0.527440 -0.831725 -0.173217
			-0.738666 -0.565506 -0.366762
			 0.224580 -0.802683 -0.552439
			-0.555081 -0.770101 -0.314293
			 0.152603 -0.794127 -0.588246
			-0.570761 -0.695745 -0.436007
			 0.172408 -0.767885 -0.616906
			-0.695216 -0.604280 -0.389149
			 0.082835 -0.714408 -0.694754
			-0.572108 -0.601118 -0.557934
			-0.358474 -0.584037 -0.728251
			-0.308446 -0.368635 -0.876876
			-0.151447 -0.510130 -0.846626
			-0.226027 -0.645789 -0.729264
			 0.089416 -0.737345 -0.669553
			-0.332601 -0.543224 -0.770869
			-0.295371 -0.443341 -0.846268
			-0.303653 -0.382187 -0.872762
			-0.237114 -0.637702 -0.732876
			-0.102117 -0.696182 -0.710534
			 0.176697 -0.939504  0.293429
			 0.161735 -0.929569  0.331224
			 0.052716 -0.941787  0.332022
			 0.177690 -0.921019  0.346594
			 0.203799 -0.918221  0.339611
			 0.379234 -0.899094  0.218545
			-0.050554 -0.933361  0.355242
			-0.044919 -0.912627  0.406239
			 0.169269 -0.871078  0.460977
			 0.210297 -0.867622  0.450498
			 0.348087 -0.915470  0.201764
			 0.441121 -0.897402  0.008335
			-0.038502 -0.901938  0.430054
			-0.023914 -0.907730  0.418803
			 0.006257 -0.929692  0.368184
			 0.359001 -0.891227  0.277092
			 0.355519 -0.934581 -0.011115
			-0.078662 -0.912472  0.401476
			-0.076432 -0.877402  0.473600
			 0.031026 -0.899315  0.436177
			 0.345127 -0.922450 -0.172995
			 0.389070 -0.767141 -0.509970
			-0.112270 -0.871847  0.476692
			-0.033072 -0.882110  0.469856
			 0.270831 -0.864121 -0.424125
			-0.158282 -0.849502  0.503228
			-0.162464 -0.882011  0.442284
			 0.313618 -0.783674 -0.536139
			-0.207598 -0.830788  0.516365
			-0.118615 -0.937699  0.326476
			 0.257545 -0.611595 -0.748030
			-0.361670 -0.876783  0.316860
			-0.202961 -0.939741  0.275011
			 0.117706 -0.678720 -0.724870
			-0.342225 -0.922205  0.180049
			 0.217664 -0.594593 -0.773970
			 0.234276 -0.519914 -0.821433
			-0.387193 -0.902568  0.188166
			-0.381260 -0.920528  0.084888
			 0.354213 -0.513034 -0.781834
			-0.409336 -0.909495  0.072165
			 0.332955 -0.497798 -0.800803
			-0.405995 -0.911357  0.067626
			-0.411959 -0.908550  0.069044
			 0.320681 -0.493944 -0.808139
			-0.409632 -0.910333  0.058996
			 0.316800 -0.487682 -0.813478
			-0.455059 -0.890403  0.004123
			-0.387028 -0.922047  0.004059
			 0.322985 -0.491648 -0.808657
			-0.421159 -0.900691 -0.106442
			 0.350662 -0.512154 -0.784037
			-0.496317 -0.844140 -0.202642
			-0.397034 -0.877836 -0.267783
			 0.338454 -0.538384 -0.771714
			-0.441682 -0.869500 -0.221000
			-0.302150 -0.883398 -0.358121
			 0.063014 -0.624619 -0.778355
			-0.305782 -0.848044 -0.432759
			-0.055580 -0.674608 -0.736048
			-0.084141 -0.800827 -0.592945
			 0.273419 -0.656517  0.702966
			 0.286273 -0.654480  0.699727
			 0.422620 -0.696352  0.580033
			 0.221520 -0.649599  0.727250
			 0.315055 -0.516644  0.796109
			 0.478071 -0.606200  0.635546
			-0.010493 -0.581005  0.813816
			 0.581859 -0.628919  0.515570
			-0.118088 -0.663021  0.739191
			 0.532612 -0.624798  0.570877
			 0.188963 -0.582317  0.790664
			 0.343427 -0.693668  0.633103
			 0.322935 -0.740968  0.588721
			 0.268168 -0.760440  0.591425
			 0.628036 -0.674083  0.388763
			-0.434688 -0.483989  0.759465
			 0.384634 -0.532112  0.754245
			 0.267015 -0.750804  0.604103
			 0.413387 -0.838046  0.356008
			 0.531342 -0.828958  0.174507
			-0.308754 -0.543181  0.780733
			 0.559028 -0.821570  0.111514
			-0.088934 -0.626394  0.774379
			 0.530574 -0.837850 -0.128309
			-0.096845 -0.772958  0.626997
			 0.007832 -0.727682  0.685824
			 0.631086 -0.746062 -0.212305
			-0.385767 -0.678443  0.625154
			-0.261037 -0.905805  0.333689
			 0.425744 -0.764075 -0.484635
			-0.351855 -0.913270  0.205076
			 0.468181 -0.671906 -0.573821
			-0.653686 -0.736128  0.175424
			-0.401499 -0.913554  0.064670
			 0.394548 -0.701692 -0.593237
			 0.436146 -0.717847 -0.542603
			-0.487453 -0.871389 -0.055029
			 0.397667 -0.791788 -0.463544
			-0.614208 -0.768759 -0.178029
			-0.561207 -0.825363 -0.061300
			 0.306501 -0.810956 -0.498352
			-0.626162 -0.775724 -0.078107
			 0.233579 -0.858438 -0.456604
			 0.415635 -0.859750 -0.296677
			-0.571427 -0.793572 -0.208915
			 0.173536 -0.862514 -0.475278
			 0.322529 -0.891486 -0.318110
			-0.527134 -0.739163 -0.419182
			 0.140263 -0.839499 -0.524887
			 0.171368 -0.899137 -0.402707
			 0.300587 -0.909036 -0.288579
			-0.514782 -0.672499 -0.531692
			 0.163837 -0.758734 -0.630392
			 0.121427 -0.921078 -0.369933
			 0.245457 -0.953861 -0.172830
			-0.598318 -0.522521 -0.607414
			 0.035227 -0.738170 -0.673630
			 0.048807 -0.976305 -0.210776
			 0.206141 -0.973999 -0.093686
			 0.253670 -0.965818  0.052640
			-0.510296 -0.425949 -0.747098
			-0.308552 -0.512950 -0.801038
			-0.277943 -0.514702 -0.811059
			-0.277943 -0.514702 -0.811059
			-0.234524 -0.663331 -0.710584
			 0.068276 -0.797389 -0.599552
			-0.052494 -0.973116 -0.224141
			 0.087997 -0.995805  0.024119
			 0.211029 -0.974010  0.082203
			 0.312477 -0.916002  0.251576
			-0.590161 -0.378767 -0.712864
			-0.317730 -0.359909 -0.877180
			-0.310029 -0.359485 -0.880113
			-0.319392 -0.362792 -0.875424
			-0.387869 -0.848485 -0.359986
			-0.064009 -0.969911 -0.234811
			-0.052003 -0.998372  0.022217
			 0.189399 -0.963581  0.188627
			 0.158958 -0.941460  0.297258
			 0.253267 -0.914201  0.316324
			 0.426029 -0.829761  0.360503
			-0.259035 -0.585658 -0.768018
			-0.438568 -0.890817 -0.118670
			-0.169401 -0.975468 -0.140546
			-0.079300 -0.994650  0.065881
			-0.000041 -0.950260  0.311427
			 0.174126 -0.933804  0.312474
			 0.172150 -0.933611  0.314194
			 0.356396 -0.893561  0.272864
			 0.566414 -0.819139  0.090262
			-0.242905 -0.962647  0.119462
			-0.029255 -0.968622  0.246784
			-0.048793 -0.902912  0.427013
			 0.282350 -0.914020  0.291280
			 0.380689 -0.906085  0.184495
			-0.257343 -0.871570  0.417243
			-0.070933 -0.947169  0.312777
			-0.025053 -0.915079  0.402437
			 0.646303 -0.674838 -0.356126
			-0.246622 -0.857697  0.451105
			-0.099059 -0.896960  0.430805
			 0.570706 -0.815286 -0.097794
			-0.193544 -0.868720  0.455873
			 0.632526 -0.544660 -0.550662
			-0.153402 -0.797259  0.583767
			 0.409834 -0.291161 -0.864404
			-0.126997 -0.833390  0.537849
			 0.404252 -0.239070 -0.882841
			-0.393853 -0.842645  0.367128
			 0.233537 -0.256697 -0.937824
			-0.400900 -0.842780  0.359128
			 0.249832 -0.260700 -0.932529
			-0.405956 -0.850434  0.334553
			-0.403709 -0.872724  0.274476
			 0.337431 -0.315429 -0.886904
			-0.390367 -0.898969  0.198496
			 0.318889 -0.486482 -0.813374
			-0.653686 -0.736128  0.175424
			-0.411432 -0.908807  0.068823
			 0.341353 -0.504152 -0.793239
			-0.443494 -0.892452  0.082560
			 0.325257 -0.492631 -0.807154
			-0.653686 -0.736128  0.175424
			-0.411959 -0.908550  0.069044
			 0.317669 -0.487583 -0.813193
			-0.444509 -0.894530  0.046548
			 0.323336 -0.492632 -0.807905
			-0.609189 -0.792282  0.033517
			-0.447106 -0.893382 -0.044163
			 0.343240 -0.506522 -0.790918
			-0.548173 -0.824692 -0.139100
			 0.367753 -0.505571 -0.780429
			-0.453422 -0.867921 -0.202699
			 0.321787 -0.368302 -0.872206
			-0.557862 -0.822528 -0.110301
			-0.383364 -0.894535 -0.229817
			 0.207622 -0.314652 -0.926183
			-0.534814 -0.778826 -0.327660
			-0.338355 -0.876654 -0.341998
			 0.080742 -0.554677 -0.828102
			-0.374438 -0.846827 -0.377674
			-0.122325 -0.626324 -0.769865
			-0.273113 -0.680715 -0.679684
			 0.297460 -0.401911  0.866005
			 0.329697 -0.423657  0.843663
			 0.154236 -0.638258  0.754179
			 0.070217 -0.549059  0.832795
			 0.310732 -0.544302  0.779165
			 0.478108 -0.531119  0.699473
			 0.286476 -0.757947  0.586020
			 0.071134 -0.625565  0.776886
			 0.437267 -0.663546  0.606996
			 0.250835 -0.766675  0.590984
			 0.506120 -0.590314  0.628728
			-0.164290 -0.520809  0.837692
			 0.486945 -0.727781  0.482887
			 0.244315 -0.686584  0.684745
			 0.320590 -0.640361  0.697947
			 0.361051 -0.755033  0.547252
			 0.268086 -0.761811  0.589688
			 0.581473 -0.624937  0.520843
			-0.493795 -0.443038  0.748192
			 0.303140 -0.759713  0.575248
			 0.250996 -0.766248  0.591467
			 0.415971 -0.731509  0.540229
			 0.503631 -0.744697  0.437872
			-0.450654 -0.365335  0.814471
			 0.545343 -0.763336  0.346219
			 0.629652 -0.734771  0.252193
			 0.229284 -0.765391  0.601296
			 0.015577 -0.419635  0.907547
			 0.518209 -0.854488  0.035456
			 0.690389 -0.723119  0.020176
			-0.079655 -0.749856  0.656755
			 0.068201 -0.649212  0.757494
			 0.433591 -0.878765 -0.199279
			-0.360105 -0.664069  0.655187
			 0.237001 -0.702351  0.671174
			 0.469934 -0.790124 -0.393502
			 0.518973 -0.695230 -0.497222
			-0.383709 -0.677487  0.627485
			 0.509556 -0.694811 -0.507500
			-0.580449 -0.737783  0.344545
			 0.406509 -0.754600 -0.515045
			-0.653413 -0.736395  0.175297
			 0.424518 -0.796609 -0.430325
			-0.659279 -0.746944  0.085861
			 0.401356 -0.832687 -0.381474
			-0.879496 -0.422941 -0.218076
			 0.446626 -0.800262 -0.400080
			 0.414949 -0.875385 -0.247892
			-0.681875 -0.714059 -0.158461
			 0.422353 -0.870675 -0.252061
			-0.685225 -0.679546 -0.261914
			 0.377259 -0.870884 -0.314897
			 0.403006 -0.896280 -0.185076
			-0.701883 -0.438402 -0.561341
			 0.412691 -0.907133 -0.082445
			-0.678121 -0.388815 -0.623622
			 0.285609 -0.954655 -0.083757
			 0.392556 -0.912558  0.114469
			-0.722078 -0.489935 -0.488358
			 0.320524 -0.920488  0.223409
			 0.387889 -0.901683  0.190854
			-0.665814 -0.465039 -0.583428
			-0.304307 -0.391660 -0.868313
			-0.308446 -0.368635 -0.876876
			-0.308446 -0.368635 -0.876876
			 0.378305 -0.868633  0.319846
			 0.464269 -0.852722  0.239301
			-0.381061 -0.513656 -0.768697
			-0.305677 -0.390794 -0.868224
			-0.305348 -0.385994 -0.870481
			-0.311947 -0.602717 -0.734407
			-0.573649 -0.717718 -0.394717
			 0.458419 -0.836787  0.299294
			 0.466769 -0.831011  0.302512
			-0.265293 -0.632113 -0.728023
			-0.241152 -0.643698 -0.726270
			-0.303127 -0.678699 -0.668918
			-0.405986 -0.780099 -0.475989
			 0.729798 -0.682544 -0.038042
			-0.407900 -0.907872  0.096619
			-0.433481 -0.880913  0.189828
			 0.619339 -0.763870 -0.181345
			-0.292897 -0.886157  0.358974
			 0.642322 -0.584641 -0.495528
			-0.374336 -0.758423  0.533523
			 0.652767 -0.453063 -0.607095
			-0.309348 -0.669222  0.675567
			-0.222058 -0.855161  0.468324
			 0.387795 -0.271040 -0.880943
			-0.308284 -0.634706  0.708556
			-0.167330 -0.829734  0.532456
			 0.329628 -0.493816 -0.804643
			-0.259314 -0.690448  0.675257
			 0.335543 -0.363947 -0.868869
			-0.362310 -0.822753  0.437870
			 0.291944 -0.155871 -0.943625
			-0.426773 -0.832134  0.354055
			 0.356629 -0.071259 -0.931489
			-0.589756 -0.766771  0.253333
			 0.384440 -0.192615 -0.902811
			-0.609841 -0.765608  0.204687
			 0.400388 -0.239412 -0.884473
			-0.613372 -0.773763  0.158225
			 0.342770 -0.505103 -0.792025
			-0.646920 -0.744376  0.165334
			 0.392755 -0.203818 -0.896751
			-0.642744 -0.755068  0.129215
			 0.368348 -0.222220 -0.902715
			-0.655367 -0.734427  0.176211
			 0.399630 -0.116653 -0.909194
			-0.655810 -0.734007  0.176416
			 0.403390 -0.168106 -0.899425
			-0.622207 -0.781092 -0.052022
			 0.410125 -0.244168 -0.878706
			-0.563599 -0.821898 -0.082618
			-0.624976 -0.756627 -0.192066
			 0.250105 -0.231562 -0.940090
			-0.571054 -0.805136 -0.159974
			 0.193010 -0.193311 -0.961935
			-0.590535 -0.785321 -0.185706
			 0.343854 -0.279656 -0.896378
			-0.554085 -0.698585 -0.452648
			 0.031536 -0.268173 -0.962835
			-0.611788 -0.635213 -0.471353
			-0.512248 -0.570551 -0.641902
			 0.036049 -0.318528 -0.947180
			-0.175520 -0.344506 -0.922223
			 0.172739 -0.557537  0.811960
			 0.300893 -0.586495  0.751952
			 0.317189 -0.597399  0.736510
			 0.258741 -0.761524  0.594202
			 0.245180 -0.756747  0.605949
			 0.269820 -0.735636  0.621284
			 0.325896 -0.704654  0.630224
			-0.024583 -0.416598  0.908729
			 0.315705 -0.517910  0.795009
			 0.314577 -0.524365  0.791217
			 0.303226 -0.647153  0.699437
			 0.247436 -0.763714  0.596216
			 0.297969 -0.565666  0.768886
			 0.268835 -0.747726  0.607129
			 0.436693 -0.608078  0.662955
			 0.318830 -0.714185  0.623091
			-0.333380 -0.537303  0.774674
			 0.625143 -0.528031  0.574755
			 0.498962 -0.715826  0.488452
			-0.444814 -0.577985  0.684114
			 0.673446 -0.676251  0.298467
			 0.281134 -0.531585  0.798951
			 0.058945 -0.717873  0.693634
			 0.564037 -0.805845  0.180023
			 0.048878 -0.608577  0.791939
			 0.267243 -0.639792  0.720561
			 0.609269 -0.786933 -0.097367
			-0.330347 -0.634192  0.699003
			 0.685214 -0.683838 -0.250618
			-0.454905 -0.582361  0.673716
			 0.525897 -0.660396 -0.535936
			 0.556606 -0.638113 -0.531963
			-0.733409 -0.602094  0.315524
			 0.591918 -0.691617 -0.413835
			 0.638215 -0.696892 -0.327036
			-0.781010 -0.617040  0.096135
			 0.422830 -0.825567 -0.373624
			 0.609516 -0.742428 -0.277910
			-0.922253 -0.364907 -0.127370
			 0.418908 -0.872908 -0.249976
			-0.934831 -0.240347 -0.261360
			 0.535599 -0.844449  0.002734
			-0.825480 -0.275197 -0.492741
			 0.412255 -0.911034  0.001128
			 0.513557 -0.843516  0.157020
			-0.681104 -0.385855 -0.622231
			 0.401659 -0.897842  0.180283
			 0.540057 -0.822293  0.179278
			-0.720911 -0.493559 -0.486422
			 0.448291 -0.869165  0.208705
			 0.535851 -0.827499  0.167473
			-0.695280 -0.429146 -0.576509
			 0.563256 -0.771246  0.296432
			 0.565730 -0.815794  0.119859
			-0.666240 -0.361666 -0.652142
			 0.685711 -0.709420  0.162740
			-0.470653 -0.424071 -0.773687
			-0.297067 -0.437440 -0.848738
			-0.252356 -0.608255 -0.752530
			-0.419356 -0.814366 -0.401125
			 0.627757 -0.745187 -0.224910
			-0.357443 -0.380412 -0.852913
			-0.308446 -0.368635 -0.876876
			-0.495330 -0.373402 -0.784311
			 0.692247 -0.575350 -0.435588
			-0.432069 -0.824912  0.364369
			 0.480843 -0.530462 -0.698121
			-0.630247 -0.505509  0.589227
			 0.584063 -0.330952 -0.741149
			-0.362585 -0.454078  0.813819
			 0.508050 -0.247586 -0.824957
			-0.355379 -0.439348  0.824986
			 0.380983 -0.227251 -0.896181
			-0.356853 -0.413201  0.837793
			 0.263225 -0.311712 -0.912955
			 0.301521 -0.203238 -0.931533
			-0.486926 -0.635459  0.599206
			 0.175165 -0.337484 -0.924872
			-0.383167 -0.826267  0.412789
			 0.323606 -0.417874 -0.848882
			-0.404692 -0.867804  0.288258
			 0.370551 -0.273348 -0.887652
			-0.464141 -0.881967  0.081736
			 0.392722 -0.201825 -0.897217
			-0.598451 -0.801115  0.000382
			 0.414014 -0.232007 -0.880159
			-0.679194 -0.726437  0.104622
			 0.401895 -0.275388 -0.873253
			-0.654783 -0.739580  0.155720
			 0.377719 -0.260881 -0.888394
			-0.653686 -0.736128  0.175424
			-0.660221 -0.736116  0.148966
			 0.288457 -0.225464 -0.930539
			-0.884478 -0.466369 -0.012861
			 0.396401  0.057050 -0.916288
			-0.704401 -0.701015 -0.111101
			 0.342833 -0.031659 -0.938852
			-0.681140 -0.663024 -0.310492
			 0.384201 -0.206628 -0.899808
			-0.696727 -0.592466 -0.404327
			 0.227325 -0.233441 -0.945388
			-0.732163 -0.542517 -0.411782
			-0.409697 -0.587565 -0.697759
			-0.316434 -0.320153 -0.892940
			 0.080643 -0.306612 -0.948396
			-0.545234 -0.621538 -0.562441
			-0.297273 -0.445411 -0.844519
			 0.039666 -0.377730 -0.925030
			 0.229047 -0.753710  0.615966
			 0.250835 -0.766675  0.590984
			 0.250835 -0.766675  0.590984
			 0.250835 -0.766675  0.590984
			-0.020265 -0.517205  0.855569
			 0.171060 -0.659267  0.732164
			 0.246526 -0.764529  0.595536
			 0.250739 -0.766929  0.590696
			 0.250739 -0.766929  0.590696
			 0.380741 -0.686732  0.619182
			 0.521675 -0.412120  0.746977
			-0.085101 -0.488758  0.868242
			 0.267216 -0.538299  0.799236
			 0.252608 -0.761931  0.596326
			 0.250418 -0.767783  0.589729
			 0.250418 -0.767783  0.589729
			 0.250418 -0.767783  0.589729
			 0.301529 -0.590822  0.748299
			 0.502738 -0.557249  0.660810
			 0.339131 -0.699484  0.629011
			-0.066359 -0.476323  0.876730
			 0.398187 -0.650972  0.646233
			 0.477841 -0.614979  0.627247
			 0.541192 -0.639689  0.545762
			-0.346730 -0.677933  0.648190
			 0.599754 -0.684762  0.413963
			 0.654929 -0.643764  0.395715
			-0.083041 -0.641338  0.762715
			 0.503070 -0.817416  0.280579
			 0.839096 -0.534289  0.101902
			 0.183650 -0.506982  0.842137
			 0.045328 -0.557344  0.828994
			 0.590095 -0.806498  0.036522
			-0.131080 -0.524117  0.841459
			 0.032375 -0.466269  0.884029
			 0.759691 -0.585286 -0.283293
			-0.392443 -0.675768  0.623911
			 0.636601 -0.714423 -0.290394
			-0.487416 -0.717372  0.497756
			 0.633217 -0.537016 -0.557300
			-0.737093 -0.501208  0.453265
			 0.626076 -0.577825 -0.523553
			-0.655810 -0.734007  0.176416
			 0.633931 -0.668736 -0.388472
			-0.905652 -0.311858  0.287239
			 0.659000 -0.676928 -0.327781
			-0.829386 -0.556629  0.047385
			 0.665506 -0.678098 -0.311868
			-0.927595 -0.353938 -0.119465
			 0.635913 -0.764112 -0.108199
			 0.584272 -0.807872 -0.076923
			 0.625385 -0.776333  0.078363
			-0.859399 -0.416363 -0.296730
			 0.552437 -0.829869  0.077744
			 0.667883 -0.729114  0.149140
			-0.876820 -0.236984 -0.418264
			 0.549374 -0.818104  0.169889
			-0.841154 -0.351125 -0.411241
			 0.550181 -0.815492  0.179475
			-0.735363 -0.484414 -0.473870
			 0.542429 -0.824255  0.162200
			-0.696386 -0.426080 -0.577449
			 0.624059 -0.772834 -0.115001
			-0.665925 -0.362293 -0.652082
			 0.609398 -0.788754 -0.080365
			-0.598030 -0.242349 -0.763925
			-0.356777  0.077936 -0.930921
			-0.348545  0.087122 -0.933202
			-0.673387 -0.233417 -0.701460
			 0.675648 -0.640164 -0.365596
			-0.401396  0.023377 -0.915599
			-0.348556  0.087125 -0.933230
			-0.348556  0.087125 -0.933230
			-0.940360 -0.338682 -0.030999
			 0.566742 -0.641711 -0.516668
			-0.792729 -0.546960  0.269062
			 0.585611 -0.399056 -0.705523
			 0.369049 -0.459780 -0.807681
			-0.502667 -0.399439  0.766624
			 0.418744 -0.357706 -0.834661
			-0.507625 -0.278777  0.815209
			 0.406241 -0.225109 -0.885591
			-0.364379 -0.185850  0.912491
			 0.404394 -0.247269 -0.880509
			-0.177277 -0.375176  0.909823
			 0.333287 -0.312933 -0.889345
			-0.281841 -0.723220  0.630410
			-0.583658 -0.636462  0.504180
			 0.218349 -0.317383 -0.922815
			-0.382582 -0.813854  0.437271
			 0.389902 -0.144637 -0.909416
			-0.678552 -0.730367  0.078191
			 0.400079 -0.126175 -0.907711
			-0.743980 -0.637865 -0.198874
			 0.409996 -0.271880 -0.870594
			-0.690471 -0.707128  0.152191
			 0.405370 -0.242982 -0.881245
			-0.663078 -0.732972  0.151699
			 0.395081 -0.226527 -0.890256
			-0.653686 -0.736128  0.175424
			 0.298971 -0.474593 -0.827831
			 0.001306 -0.242186 -0.970206
			-0.704914 -0.706411  0.063560
			 0.244164 -0.173951 -0.953988
			 0.305920 -0.224863 -0.925079
			-0.741532 -0.592721 -0.314290
			 0.346300 -0.026500 -0.937715
			-0.836756 -0.541763 -0.079214
			-0.834203 -0.504802 -0.221901
			 0.413257  0.089759 -0.906168
			-0.770295 -0.506150 -0.387812
			 0.377023  0.073537 -0.923242
			-0.662822 -0.715536 -0.220568
			 0.339622 -0.056962 -0.938804
			-0.521710 -0.697931 -0.490556
			-0.279080 -0.641401 -0.714601
			-0.100335 -0.482810 -0.869928
			 0.151971 -0.333632 -0.930347
			-0.604237 -0.417138 -0.678839
			-0.281959 -0.472660 -0.834898
			 0.082214 -0.342490 -0.935895
			-0.357552 -0.378675 -0.853643
			 0.206894 -0.767204  0.607078
			 0.250780 -0.766810  0.590820
			 0.250780 -0.766810  0.590820
			 0.338294 -0.714754  0.612092
			-0.021294 -0.681498  0.731478
			 0.247623 -0.766917  0.592022
			 0.250900 -0.766472  0.591182
			 0.255401 -0.763627  0.592949
			 0.420680 -0.607495  0.673737
			 0.342042 -0.646343  0.682037
			-0.094106 -0.524409  0.846203
			 0.035725 -0.604167  0.796031
			 0.599255 -0.516282  0.611805
			 0.398709 -0.656087  0.640738
			 0.522758 -0.411301  0.746681
			 0.053247 -0.657735  0.751332
			 0.284932 -0.419223  0.861996
			 0.307328 -0.570171  0.761852
			 0.606443 -0.415461  0.677908
			-0.104547 -0.636302  0.764284
			 0.670916 -0.466380  0.576477
			 0.527713 -0.669893  0.522228
			-0.308019 -0.641048  0.702946
			 0.650201 -0.516874  0.556793
			 0.705214 -0.672582  0.224152
			-0.091426 -0.554165  0.827326
			 0.085971 -0.609340  0.788204
			-0.041301 -0.457293  0.888339
			 0.205330 -0.664067  0.718884
			 0.884594 -0.458048 -0.087447
			-0.036761 -0.454742  0.889828
			 0.827829 -0.537018 -0.162127
			-0.540286 -0.567432  0.621307
			 0.731966 -0.438438 -0.521490
			 0.693223 -0.555820 -0.458775
			-0.771512 -0.566883  0.288713
			 0.644382 -0.601714 -0.471874
			 0.674926 -0.645696 -0.357099
			-0.807088 -0.557990  0.192826
			 0.673522 -0.687605 -0.271142
			 0.615617 -0.769024 -0.171970
			 0.735528 -0.676660 -0.032893
			-0.908069 -0.416323 -0.044983
			 0.617489 -0.786538 -0.005697
			-0.848550 -0.449870 -0.278428
			 0.644348 -0.759948  0.085272
			 0.535866 -0.791497  0.293820
			-0.889004 -0.283282 -0.359700
			 0.602515 -0.758528  0.248131
			 0.629264 -0.719793  0.293019
			-0.873423 -0.285836 -0.394165
			 0.518962 -0.821935  0.234574
			 0.722284 -0.677444  0.138971
			-0.875219 -0.224520 -0.428382
			 0.604291 -0.796440  0.020972
			-0.832175 -0.253055 -0.493338
			 0.707300 -0.633929 -0.312811
			-0.672214 -0.356437 -0.648854
			 0.670400 -0.664330 -0.330424
			-0.610502 -0.261982 -0.747405
			-0.341757 -0.233400 -0.910304
			-0.309862 -0.001181 -0.950772
			-0.781545  0.049980 -0.621812
			 0.642376 -0.486594 -0.592050
			-0.385321 -0.244972 -0.889660
			-0.320234 -0.238269 -0.916858
			-0.348556  0.087125 -0.933230
			-0.988605  0.038705 -0.145306
			 0.640036 -0.329358 -0.694163
			-0.645335 -0.391848  0.655707
			 0.551213 -0.278091 -0.786630
			-0.644674 -0.275832  0.712904
			 0.430336 -0.118981 -0.894766
			-0.430130 -0.170990  0.886402
			 0.424859 -0.336983 -0.840165
			-0.151233 -0.335482  0.929786
			 0.371202 -0.477691 -0.796227
			 0.045106 -0.177589  0.983033
			 0.321794 -0.362545 -0.874618
			-0.458533 -0.350833  0.816464
			 0.302879 -0.475145 -0.826096
			-0.007378 -0.237558 -0.971321
			-0.645701 -0.477265  0.596028
			 0.184791 -0.288417 -0.939488
			 0.260106 -0.241087 -0.934964
			-0.841902 -0.373897  0.389041
			 0.390929 -0.291135 -0.873146
			-0.655773 -0.734006  0.176402
			-0.906595 -0.421704 -0.013289
			 0.346674 -0.424530 -0.836388
			-0.655810 -0.734007  0.176416
			 0.346393 -0.373106 -0.860682
			-0.670082 -0.723201  0.167153
			 0.388200 -0.197015 -0.900243