<?xml version="1.0"?>
<VTKFile type="PolyData" version="0.1" byte_order="LittleEndian" compressor="vtkZLibDataCompressor">
	<PolyData>
		<Piece NumberOfPoints="8" NumberOfVerts="0" NumberOfLines="0" NumberOfStrips="0" NumberOfPolys="6">
		<PointData Normals="Normals">
		<DataArray type="Float32" Name="Normals" NumberOfComponents="3" format="ascii">
			-0.577400  0.577400 -0.577400
			-0.577400  0.577400  0.577400
			-0.577400 -0.577400 -0.577400
			-0.577400 -0.577400  0.577400
			 0.577400  0.577400 -0.577400
			 0.577400  0.577400  0.577400
			 0.577400 -0.577400 -0.577400
			 0.577400 -0.577400  0.577400
		</DataArray>
	</PointData>
	<Points>
		<DataArray type="Float32" NumberOfComponents="3" format="ascii">
			 0.000000  0.000000 -0.050000
			 0.000000  0.000000  0.050000
			 0.000000 -0.005000 -0.050000
			 0.000000 -0.005000  0.050000
			 0.250000  0.000000 -0.050000
			 0.250000  0.000000  0.050000
			 0.250000 -0.005000 -0.050000
			 0.250000 -0.005000  0.050000
		</DataArray>
	</Points>
			<Polys>
				<DataArray type="Int32" Name="connectivity" format="ascii">
					0 1 3 2 
					0 1 5 4 
					0 4 6 2 
					2 3 7 6 
					1 3 5 7 
					4 5 7 6 
				</DataArray>
				<DataArray type="Int32" Name="offsets" format="ascii">
					4 8 12 16 20 24 
				</DataArray>
			</Polys>
		</Piece>
	</PolyData>
</VTKFile>
