<?xml version="1.0"?>
<VTKFile type="PolyData" version="0.1" byte_order="LittleEndian" compressor="vtkZLibDataCompressor">
	<PolyData>
		<Piece NumberOfPoints="18439" NumberOfVerts="0" NumberOfLines="0" NumberOfStrips="0" NumberOfPolys="36874">
		<PointData Normals="Normals">
		<DataArray type="Float32" Name="Normals" NumberOfComponents="3" format="ascii">
			-0.957430  0.282132  0.060847
			-0.962697  0.248461 -0.106986
			-0.943280  0.184889  0.275613
			-0.958407  0.280675 -0.051157
			-0.956941  0.282208 -0.067696
			-0.977565 -0.146966  0.150722
			-0.881969  0.016695  0.470958
			-0.972350  0.216446 -0.087410
			-0.994668  0.089339  0.051134
			-0.977190 -0.151970  0.148199
			-0.909760 -0.011222  0.414948
			-0.985427  0.087865 -0.145516
			-0.977749 -0.147490  0.148986
			-0.976973 -0.152547  0.149009
			-0.976221 -0.154331  0.152042
			-0.846266 -0.041415  0.531118
			-0.982530  0.075246 -0.170010
			-0.976420 -0.154753  0.150320
			-0.976377 -0.155304  0.150033
			-0.976282 -0.155136  0.150820
			-0.906604 -0.129966  0.401437
			-0.917085  0.181351 -0.354980
			-0.976519 -0.154660  0.149774
			-0.975916 -0.157065  0.151205
			-0.976108 -0.156650  0.150389
			-0.975938 -0.155986  0.152174
			-0.830971 -0.155140  0.534211
			-0.887745  0.145341 -0.436736
			-0.977242 -0.152580  0.147228
			-0.975419 -0.157557  0.153920
			-0.975654 -0.159750  0.150140
			-0.975399 -0.159897  0.151637
			-0.850443 -0.270584  0.451112
			-0.977256 -0.153782  0.145906
			-0.975664 -0.156984  0.152919
			-0.929704 -0.307643  0.202475
			-0.959178 -0.222671  0.174254
			-0.870943 -0.368453  0.325075
			-0.901273 -0.093669 -0.422963
			-0.976177 -0.155636  0.150986
			-0.894072 -0.342727  0.288359
			-0.905857 -0.372379  0.201728
			-0.865888 -0.425535  0.262913
			-0.976701 -0.156182  0.147026
			-0.930758 -0.249178  0.267501
			-0.902721 -0.358296  0.238023
			-0.890976 -0.389895  0.232672
			-0.904220 -0.334635 -0.265212
			-0.975464 -0.158267  0.152894
			-0.877601 -0.333074  0.344723
			-0.892430 -0.450037  0.031409
			-0.807824 -0.408968  0.424394
			-0.798016 -0.557918  0.227675
			-0.897948  0.420271 -0.130433
			-0.945730  0.322498  0.039258
			-0.832799  0.288024  0.472683
			-0.942181  0.315913 -0.111584
			-0.942565  0.331050  0.043882
			-0.949108  0.183011  0.256216
			-0.900803  0.331339 -0.280610
			-0.938228  0.340099 -0.063488
			-0.948103  0.285964 -0.138864
			-0.955684  0.220477  0.194953
			-0.853269  0.115430  0.508488
			-0.850923  0.382356 -0.360114
			-0.942835  0.307924 -0.127367
			-0.963865  0.241786 -0.111671
			-0.894160  0.056842  0.444045
			-0.816600 -0.045521  0.575383
			-0.723344  0.421951 -0.546519
			-0.920067  0.347060 -0.181601
			-0.952453  0.303014  0.030774
			-0.846694  0.040647  0.530496
			-0.897994  0.259476 -0.355299
			-0.875953  0.006775  0.482276
			-0.742969  0.076171  0.664970
			-0.904106  0.229753 -0.360208
			-0.899977 -0.067362  0.430683
			-0.829608  0.236715 -0.505644
			-0.864268 -0.123132  0.487648
			-0.715664 -0.135952  0.685033
			-0.761510  0.240482 -0.601846
			-0.847227 -0.194800  0.494197
			-0.829251 -0.208736  0.518360
			-0.782327 -0.153622  0.603586
			-0.909815  0.008193 -0.414890
			-0.804335 -0.358228  0.473997
			-0.747299 -0.379680  0.545286
			-0.869409 -0.046465 -0.491848
			-0.843456 -0.418556  0.336705
			-0.781194 -0.369902  0.502829
			-0.934073 -0.164641 -0.316784
			-0.901399 -0.379776  0.207868
			-0.879964 -0.411631  0.237046
			-0.799024 -0.423999  0.426314
			-0.921894 -0.248620 -0.297133
			-0.911718 -0.329452  0.245343
			-0.889140 -0.389085  0.240831
			-0.822059 -0.472395  0.317828
			-0.818530 -0.340725 -0.462491
			-0.894077 -0.420771 -0.153350
			-0.854480 -0.349779  0.383978
			-0.902594 -0.359860  0.236245
			-0.739533 -0.576274  0.347787
			-0.878179 -0.362102 -0.312466
			-0.842101 -0.534207  0.073614
			-0.787667 -0.483299  0.381998
			-0.846187 -0.432401  0.311378
			-0.806234 -0.506221  0.306080
			-0.893985 -0.374897 -0.245326
			-0.844364 -0.534187  0.040510
			-0.789336 -0.566859  0.235690
			-0.722228 -0.520695  0.455223
			-0.797989 -0.563156  0.214554
			-0.865301 -0.492832 -0.091049
			-0.788868 -0.568673  0.232941
			-0.693005 -0.607026  0.388858
			-0.820790 -0.562374  0.099950
			-0.752116 -0.573854  0.323955
			-0.879003  0.476787 -0.005157
			-0.942750  0.320153 -0.093236
			-0.921329  0.374442 -0.104269
			-0.914374  0.353519  0.197264
			-0.925212  0.338551 -0.171198
			-0.940350  0.327123 -0.093138
			-0.961336  0.270135  0.053055
			-0.774142  0.501805  0.385799
			-0.907426  0.348482 -0.234698
			-0.945382  0.316051 -0.079271
			-0.944178  0.316021 -0.092677
			-0.922936  0.325064  0.206059
			-0.748128  0.342729  0.568141
			-0.909237  0.325806 -0.258978
			-0.927782  0.354965 -0.114712
			-0.826486  0.239594  0.509397
			-0.686460  0.353765  0.635281
			-0.638384  0.330042 -0.695333
			-0.905204  0.364042 -0.219205
			-0.838466  0.031751  0.543993
			-0.561522  0.493739 -0.663961
			-0.671543  0.042098  0.739729
			-0.802231  0.078368  0.591813
			-0.540417  0.497875 -0.678250
			-0.698534  0.052843  0.713594
			-0.437336  0.318163 -0.841092
			-0.676103  0.066031  0.733826
			-0.234255  0.358958 -0.903467
			-0.724643 -0.065693  0.685940
			-0.716315 -0.183193  0.673245
			-0.352116  0.499605 -0.791427
			-0.628502 -0.136939  0.765617
			-0.383044  0.340314 -0.858721
			-0.716275 -0.302898  0.628578
			-0.518282  0.188553 -0.834141
			-0.675332 -0.480026  0.559844
			-0.607198  0.257319 -0.751683
			-0.490555 -0.664233  0.564030
			-0.428484 -0.590383  0.683962
			-0.664780  0.000471 -0.747012
			-0.247673 -0.746409  0.617629
			-0.408427 -0.762904  0.501111
			-0.583328  0.078948 -0.808352
			-0.131960 -0.851721  0.507036
			-0.823500 -0.300533 -0.481115
			-0.214025 -0.779997  0.588016
			-0.781437 -0.231150 -0.579559
			-0.621808 -0.650894  0.435502
			-0.202879 -0.806383  0.555467
			-0.862230 -0.447893 -0.236443
			-0.453940 -0.682368  0.572958
			-0.315684 -0.746071  0.586227
			-0.780544 -0.529104 -0.332784
			-0.838459 -0.542458 -0.051572
			-0.806166 -0.552174  0.212500
			-0.613796 -0.659836  0.433412
			-0.783956 -0.594184 -0.179806
			-0.782707 -0.602511  0.155881
			-0.748149 -0.596621  0.290296
			-0.697690 -0.715425  0.036649
			-0.696053 -0.686898  0.208853
			-0.848322  0.529163 -0.016696
			-0.814066  0.580687  0.007611
			-0.949421  0.282144 -0.137667
			-0.850372  0.525637 -0.022796
			-0.748004  0.598629  0.286497
			-0.914671  0.366085 -0.171170
			-0.966632  0.243343 -0.079662
			-0.725662  0.542157  0.423606
			-0.672435  0.495702  0.549621
			-0.903909  0.316651 -0.287457
			-0.791526  0.332536  0.512685
			-0.832616  0.388976 -0.394163
			-0.637334  0.318914  0.701453
			-0.667941  0.215273 -0.712379
			-0.627890  0.385003  0.676394
			-0.621325  0.116585  0.774774
			-0.533045  0.372112 -0.759837
			-0.622993  0.089239  0.777081
			-0.402693  0.413309 -0.816666
			-0.688010  0.079136  0.721331
			-0.226255  0.447095 -0.865367
			-0.796101  0.095186  0.597617
			-0.790846  0.047462  0.610132
			-0.686518 -0.023792  0.726676
			-0.427538  0.219817 -0.876843
			-0.803074 -0.102973  0.586875
			-0.394543  0.364299 -0.843550
			-0.695839 -0.214989  0.685242
			-0.569087 -0.237709  0.787145
			-0.221894  0.569745 -0.791263
			-0.372105 -0.358853  0.856012
			-0.353740  0.421786 -0.834797
			-0.239955 -0.491974  0.836859
			-0.026854 -0.721227  0.692137
			-0.527332  0.276911 -0.803226
			 0.057398 -0.686636  0.724719
			-0.557390  0.108936 -0.823040
			 0.017723 -0.745821  0.665886
			 0.096843 -0.844222  0.527105
			-0.745870 -0.033605 -0.665204
			-0.047173 -0.789646  0.611702
			-0.695291 -0.071799 -0.715106
			-0.204518 -0.786247  0.583054
			 0.127253 -0.734577  0.666444
			 0.079066 -0.790462  0.607348
			-0.787689 -0.289971 -0.543514
			 0.004630 -0.718763  0.695206
			-0.116167 -0.841701  0.527252
			-0.740858 -0.389054 -0.547448
			-0.232613 -0.762690  0.603405
			-0.789161 -0.540337 -0.291924
			-0.372490 -0.587421  0.718410
			-0.746119 -0.654201 -0.123581
			-0.572617 -0.794372  0.202529
			-0.341496 -0.762874  0.548926
			-0.568294 -0.806822  0.161290
			-0.441454 -0.867770  0.228158
			-0.928379  0.359460  0.093943
			-0.948549  0.289538 -0.127916
			-0.829025  0.554801  0.069876
			-0.588046  0.806460  0.061503
			-0.921728  0.154656 -0.355552
			-0.882880  0.467019 -0.048860
			-0.792363  0.609992 -0.007158
			-0.578065  0.797464  0.172775
			-0.895239  0.084733 -0.437411
			-0.892830  0.333790 -0.302286
			-0.586920  0.622110  0.518130
			-0.799945  0.404394 -0.443298
			-0.523421  0.756781  0.391471
			-0.447393  0.549111  0.705888
			-0.720989  0.418622 -0.552145
			-0.458048  0.848119  0.266179
			-0.626276  0.163221  0.762309
			-0.570457  0.227427 -0.789181
			-0.475594  0.473441  0.741367
			-0.494180  0.364542  0.789206
			-0.494338  0.258276 -0.829983
			-0.622847  0.118146  0.773352
			-0.372741  0.285360 -0.882948
			-0.481073  0.288821  0.827692
			-0.258229  0.323613 -0.910246
			-0.631446  0.219897  0.743564
			-0.557576  0.289058  0.778122
			-0.333280  0.499714 -0.799483
			-0.037289 -0.227947  0.972920
			-0.366235  0.358764 -0.858563
			-0.064194 -0.182685  0.981059
			-0.527816  0.230239 -0.817540
			-0.541805  0.294885 -0.787042
			-0.062559 -0.345302  0.936388
			-0.373104  0.404587 -0.834893
			 0.049666 -0.496304  0.866713
			-0.236811  0.551553 -0.799808
			 0.214320 -0.623913  0.751485
			-0.464715  0.336111 -0.819150
			 0.216320 -0.809397  0.545926
			 0.215642 -0.750569  0.624582
			 0.353392 -0.711724  0.607044
			-0.635482  0.295546 -0.713260
			 0.209957 -0.846928  0.488450
			 0.444551 -0.759908  0.474212
			-0.585865  0.078765 -0.806526
			 0.216240 -0.697584  0.683048
			 0.216129 -0.677951  0.702560
			 0.208691 -0.858572  0.468240
			-0.648292 -0.191010 -0.737019
			 0.208320 -0.757218  0.619003
			-0.532013 -0.073277 -0.843546
			 0.134791 -0.595024  0.792293
			-0.677176 -0.533799 -0.506389
			 0.008510 -0.620031  0.784504
			-0.536679 -0.760995 -0.364388
			-0.041138 -0.686663  0.725784
			-0.468217 -0.860079 -0.202397
			-0.565833 -0.796891  0.211579
			 0.065021 -0.831048  0.552310
			-0.560927 -0.825008 -0.068373
			-0.541018 -0.827460  0.150250
			-0.145467 -0.814425  0.561682
			-0.307527 -0.929768  0.202313
			-0.968336  0.247211 -0.034207
			-0.879605  0.475423 -0.015452
			-0.960567  0.041946 -0.274812
			-0.949328  0.313951 -0.012398
			-0.829193  0.520690  0.203217
			-0.596382  0.744237  0.300637
			-0.975955  0.118947 -0.182555
			-0.952409  0.282710 -0.113765
			-0.831038  0.509662  0.222588
			-0.511989  0.796174  0.322386
			-0.831273 -0.161975 -0.531700
			-0.973069  0.099809 -0.207662
			-0.742835  0.656844  0.129142
			-0.339644  0.937366  0.077228
			-0.912275 -0.011227 -0.409343
			-0.345411  0.816452  0.462632
			-0.755320 -0.136122 -0.641004
			-0.281749  0.773117  0.568210
			-0.775698  0.275448 -0.567761
			-0.136158  0.815774  0.562077
			-0.513119  0.176455 -0.839961
			-0.229612  0.660622  0.714731
			-0.287369  0.624838  0.725924
			-0.168073  0.011807 -0.985686
			-0.205454  0.379126 -0.902209
			-0.417625  0.412502  0.809565
			-0.357220  0.281943  0.890402
			-0.386485  0.217004 -0.896400
			-0.532475  0.143961  0.834104
			-0.369692  0.370430 -0.852084
			-0.027158  0.019197  0.999432
			-0.224144  0.572568 -0.788599
			 0.198692 -0.368906  0.907947
			-0.335044  0.463948 -0.820014
			 0.334103 -0.261435  0.905518
			-0.472682  0.297178 -0.829582
			 0.505777 -0.398840  0.764880
			-0.467123  0.363096 -0.806165
			 0.602120 -0.604764  0.521195
			-0.698498  0.397656 -0.594938
			 0.444927 -0.668182  0.596258
			-0.478300  0.521249 -0.706710
			 0.358869 -0.805674  0.471248
			-0.373407  0.447864 -0.812383
			 0.381339 -0.644096  0.663082
			-0.339338  0.361315 -0.868476
			 0.330931 -0.647107  0.686770
			 0.451242 -0.706902  0.544653
			-0.306056 -0.042613 -0.951045
			 0.216241 -0.703194  0.677281
			 0.215646 -0.750380  0.624805
			-0.523605  0.120047 -0.843422
			 0.213056 -0.571139  0.792695
			 0.209009 -0.855800  0.473156
			-0.661143 -0.314647 -0.681071
			 0.214292 -0.600944  0.769991
			-0.665629 -0.640804 -0.382430
			-0.171096 -0.781842  0.599483
			 0.204784 -0.597253  0.775434
			-0.699262 -0.494938 -0.515771
			-0.740573 -0.607216 -0.287746
			-0.005237 -0.741618  0.670769
			-0.613761 -0.774443 -0.153211
			-0.387656 -0.904947 -0.175360
			-0.170407 -0.834509  0.523927
			-0.126458 -0.779775  0.613115
			-0.429563 -0.887976  0.164113
			-0.314821 -0.933263  0.172806
			 0.169341 -0.836291  0.521413
			-0.982376  0.185061 -0.025988
			-0.853324  0.509564  0.110222
			-0.954051 -0.089062 -0.286019
			-0.952671  0.303870 -0.004618
			-0.749460  0.610308  0.256551
			-0.955968  0.046136 -0.289687
			-0.966660  0.252722 -0.040309
			-0.553579  0.757861  0.345211
			-0.584416 -0.425620 -0.690825
			-0.290907  0.840058  0.457839
			-0.425431  0.856441  0.292385
			-0.827991 -0.149715 -0.540347
			-0.369040  0.859394  0.353898
			-0.192973  0.925903  0.324703
			 0.098286  0.971084  0.217392
			-0.658485 -0.218315 -0.720218
			 0.100421  0.901945  0.420006
			-0.008749  0.826332  0.563086
			-0.406235 -0.055740 -0.912049
			-0.044002  0.824437  0.564199
			-0.128277 -0.145070 -0.981036
			-0.038182  0.809212  0.586245
			 0.014152  0.649117  0.760551
			-0.186199  0.249101 -0.950394
			 0.059439  0.492081  0.868488
			-0.238957  0.512530 -0.824712
			-0.350005  0.360585 -0.864545
			 0.314818  0.136497  0.939254
			 0.735972  0.143697  0.661556
			-0.337360  0.262413 -0.904040
			 0.386287 -0.210364  0.898041
			-0.210476  0.522115 -0.826475
			 0.411923 -0.405699  0.815891
			-0.239385  0.534186 -0.810754
			 0.462370 -0.439929  0.769822
			-0.450923  0.420781 -0.787117
			 0.461512 -0.509448  0.726227
			-0.563144  0.444335 -0.696692
			 0.419081 -0.615281  0.667665
			-0.542966  0.303633 -0.782898
			 0.245281 -0.694840  0.676011
			 0.393244 -0.673191  0.626218
			-0.393546  0.267342 -0.879546
			 0.292577 -0.849993  0.438046
			 0.496204 -0.747242  0.441990
			 0.367785 -0.664684  0.650284
			-0.322869  0.253762 -0.911769
			 0.247162 -0.600737  0.760267
			-0.551346  0.110907 -0.826842
			 0.208691 -0.858572  0.468240
			 0.215613 -0.751597  0.623335
			-0.505928  0.090726 -0.857771
			 0.212056 -0.550573  0.807398
			 0.212457 -0.571594  0.792524
			-0.494067 -0.418667 -0.761933
			 0.186528 -0.577931  0.794457
			-0.568135 -0.700641 -0.431619
			-0.233916 -0.758268  0.608482
			 0.088081 -0.678031  0.729716
			-0.341447 -0.936000 -0.085218
			-0.489752 -0.869296  0.066401
			-0.201032 -0.808052  0.553707
			-0.160139 -0.832070  0.530991
			-0.375797 -0.907702 -0.186575
			-0.131978 -0.971107  0.198661
			-0.734814  0.669548  0.108113
			-0.919399  0.384524 -0.082436
			-0.705110  0.649849  0.283686
			-0.945449 -0.029866 -0.324300
			-0.916668  0.399383  0.013659
			-0.649836  0.710655  0.269553
			-0.876298 -0.320144 -0.359954
			-0.955070 -0.009304 -0.296168
			-0.925669  0.340682  0.164401
			-0.517441  0.774423  0.363959
			-0.780579 -0.417719 -0.464911
			-0.279629  0.767061  0.577376
			-0.802351 -0.356145 -0.478930
			-0.182547  0.812212  0.554013
			-0.644597 -0.602040 -0.471136
			-0.110756  0.953872  0.278961
			-0.620188 -0.502417 -0.602400
			-0.111442  0.957893  0.264518
			-0.322846 -0.346256 -0.880806
			 0.037683  0.853795  0.519170
			-0.540339 -0.459193 -0.705070
			 0.076239  0.903932  0.420726
			-0.226971 -0.238013 -0.944331
			 0.248493  0.902969  0.350537
			 0.283545  0.807282  0.517553
			-0.128089 -0.172567 -0.976615
			 0.335103  0.771566  0.540700
			 0.287583  0.717274  0.634642
			-0.254165  0.010697 -0.967075
			-0.353942  0.372857 -0.857702
			 0.505351  0.520347  0.688342
			-0.209931  0.513078 -0.832250
			 0.618632  0.206842  0.757934
			 0.628183  0.106903  0.770655
			-0.287551  0.224460 -0.931060
			-0.382676  0.330410 -0.862756
			 0.547618 -0.025688  0.836302
			-0.246369  0.555699 -0.794020
			 0.614806 -0.219347  0.757531
			 0.503739 -0.337507  0.795148
			-0.214386  0.603483 -0.767990
			 0.527151 -0.490572  0.693795
			-0.212581  0.561055 -0.799997
			 0.563633 -0.523378  0.639008
			-0.233689  0.554268 -0.798818
			 0.589905 -0.627097  0.508636
			-0.458665  0.332724 -0.823923
			 0.387839 -0.631092  0.671741
			 0.216084 -0.726666  0.652073
			 0.215264 -0.631162  0.745161
			-0.469610  0.215099 -0.856252
			 0.210658 -0.839742  0.500400
			-0.418832  0.249412 -0.873108
			 0.213489 -0.580906  0.785436
			 0.216241 -0.703194  0.677281
			 0.215393 -0.636276  0.740734
			-0.270299 -0.051859 -0.961365
			 0.213056 -0.571139  0.792695
			 0.209009 -0.855800  0.473156
			-0.123456 -0.171835 -0.977359
			 0.214292 -0.600944  0.769991
			 0.222179 -0.564654  0.794844
			-0.164612 -0.234634 -0.958019
			 0.381523 -0.609827  0.694604
			 0.246560 -0.544905  0.801398
			-0.305944 -0.806559 -0.505775
			-0.416627 -0.898843 -0.135715
			-0.399720 -0.896357 -0.191595
			 0.048691 -0.723526  0.688566
			-0.431713 -0.888349  0.156233
			-0.388459 -0.916087 -0.099090
			 0.085739 -0.858458  0.505657
			-0.198885 -0.867864  0.455209
			-0.843830  0.536542 -0.006733
			-0.764411  0.597230  0.242834
			-0.968906  0.153883 -0.193619
			-0.849403  0.527589 -0.012447
			-0.570939  0.719150  0.395966
			-0.856362 -0.255948 -0.448419
			-0.975563  0.120078 -0.183826
			-0.459516  0.785452  0.414527
			-0.899429 -0.070670 -0.431271
			-0.181291  0.841036  0.509651
			-0.673882 -0.549249 -0.494112
			-0.083063  0.813386  0.575742
			-0.634895 -0.578428 -0.512130
			-0.047219  0.832621  0.551779
			-0.651228 -0.544836 -0.528220
			-0.036735  0.805345  0.591634
			 0.212118  0.957772  0.194038
			-0.420371 -0.656869 -0.625901
			 0.077816  0.946130  0.314209
			 0.247776  0.878738  0.407898
			-0.452271 -0.556639 -0.696821
			 0.150548  0.859684  0.488081
			-0.266939 -0.594571 -0.758428
			 0.103696  0.863853  0.492887
			-0.146664 -0.289138 -0.945967
			 0.143874  0.821307  0.552017
			 0.241477  0.824636  0.511508
			-0.442118  0.065634 -0.894509
			 0.343231  0.736506  0.582824
			-0.558746  0.112560 -0.821654
			 0.496954  0.591020  0.635345
			 0.735504  0.285940  0.614189
			-0.357674  0.246737 -0.900632
			 0.572521  0.263526  0.776363
			-0.228112  0.502223 -0.834082
			 0.781437  0.231150  0.579559
			-0.455123  0.299097 -0.838666
			 0.518439  0.047014  0.853777
			 0.653749 -0.061661  0.754151
			-0.431137  0.230051 -0.872437
			-0.215138  0.510098 -0.832757
			 0.567845 -0.462001  0.681207
			-0.213207  0.574480 -0.790225
			 0.505208 -0.525441  0.684536
			-0.214052  0.594567 -0.775008
			 0.381513 -0.590425  0.711207
			 0.294342 -0.585096  0.755619
			-0.213819  0.588791 -0.779454
			 0.297635 -0.601853  0.741042
			-0.225530  0.357555 -0.906245
			 0.533874 -0.681918  0.499926
			-0.409428  0.256917 -0.875390
			 0.244135 -0.726156  0.642690
			 0.303552 -0.598542  0.741319
			-0.271831  0.114546 -0.955477
			 0.399300 -0.729023  0.555901
			 0.234904 -0.739679  0.630599
			-0.123456 -0.171835 -0.977359
			 0.212056 -0.550573  0.807398
			 0.214279 -0.582088  0.784357
			-0.123456 -0.171835 -0.977359
			 0.261135 -0.858148  0.442009
			 0.480771 -0.506619  0.715623
			-0.121955 -0.250931 -0.960287
			 0.215657 -0.749902  0.625364
			 0.609604 -0.324104  0.723371
			-0.292455 -0.769405 -0.567820
			-0.324223 -0.940283  0.103565
			 0.208419 -0.860926  0.464053
			 0.498164 -0.711160  0.496052
			-0.296927 -0.942722 -0.151920
			 0.079632 -0.978941  0.187950
			-0.822565  0.568583 -0.007440
			-0.900343  0.387507 -0.197977
			-0.748289  0.658937  0.076218
			-0.483457  0.840789  0.243502
			-0.839788  0.031267 -0.541966
			-0.870520  0.480431 -0.106434
			-0.634975  0.770518 -0.055262
			-0.310519  0.765501  0.563493
			-0.920017  0.024264 -0.391031
			-0.185538  0.827535  0.529832
			-0.803079 -0.226060 -0.551271
			-0.069410  0.821241  0.566303
			-0.769721 -0.400336 -0.497188
			-0.042131  0.819612  0.571359
			-0.422492 -0.702578 -0.572607
			-0.038984  0.811328  0.583223
			-0.146579 -0.787205 -0.598945
			-0.039027  0.811464  0.583082
			-0.169293 -0.731162 -0.660832
			-0.034296  0.815597  0.577573
			-0.267587 -0.640221 -0.720035
			 0.109004  0.882706  0.457081
			-0.392305 -0.596594 -0.700093
			 0.302218  0.830858  0.467218
			-0.237499 -0.592905 -0.769438
			 0.340246  0.897676  0.279890
			-0.503017 -0.439291 -0.744265
			 0.346363  0.873293  0.342564
			 0.291240  0.861784  0.415303
			-0.749850 -0.228360 -0.620904
			 0.256833  0.831924  0.491814
			-0.554820  0.052665 -0.830293
			-0.510428  0.130756 -0.849885
			 0.388865  0.678996  0.622665
			 0.450142  0.566371  0.690325
			-0.189286 -0.067323 -0.979582
			-0.203356  0.421974 -0.883497
			 0.667841  0.267880  0.694361
			-0.213150  0.573217 -0.791156
			 0.714472  0.161814  0.680680
			-0.264324  0.255706 -0.929890
			 0.701738  0.086333  0.707131
			-0.397244  0.304125 -0.865820
			 0.600689 -0.205331  0.772617
			 0.551141 -0.380091  0.742778
			-0.358348  0.531869 -0.767244
			 0.348004 -0.485326  0.802062
			-0.212581  0.561055 -0.799997
			 0.263851 -0.573481  0.775559
			-0.212799  0.565594 -0.796736
			-0.221783  0.559488 -0.798589
			 0.517937 -0.620532  0.588736
			 0.423595 -0.652001  0.628818
			-0.384072  0.395724 -0.834189
			 0.260572 -0.618507  0.741306
			 0.554520 -0.715768  0.424394
			 0.272890 -0.835068  0.477648
			-0.432015  0.193366 -0.880866
			 0.437273 -0.695234  0.570427
			 0.246738 -0.655123  0.714090
			 0.261950 -0.582655  0.769319
			-0.123456 -0.171835 -0.977359
			 0.213056 -0.571139  0.792695
			-0.123456 -0.171835 -0.977359
			 0.224760 -0.603965  0.764626
			 0.215173 -0.766239  0.605399
			 0.415615 -0.627292  0.658581
			-0.123456 -0.171835 -0.977359
			 0.477102 -0.737755  0.477523
			 0.435908 -0.427257  0.792065
			-0.217601 -0.322333 -0.921266
			 0.409353 -0.582191  0.702438
			 0.149851 -0.980029  0.130580
			 0.177544 -0.972827  0.148611
			 0.223958 -0.600113  0.767917
			-0.185594 -0.948278 -0.257378
			 0.171750 -0.974801  0.142211
			 0.211697 -0.827928  0.519299
			-0.817204  0.426718 -0.387367
			-0.728138  0.682251  0.065737
			-0.868647  0.487204 -0.089567
			-0.621213  0.777419  0.098362
			-0.867556  0.024772 -0.496677
			-0.483213  0.819723  0.307377
			-0.781513 -0.231146 -0.579448
			-0.136065  0.929067  0.343908
			-0.601841 -0.049399 -0.797067
			-0.206572  0.823427  0.528475
			-0.416523 -0.611111 -0.673056
			-0.255229  0.699765  0.667211
			-0.203505 -0.675798 -0.708379
			-0.058186  0.804390  0.591227
			-0.164616 -0.776412 -0.608285
			-0.039717  0.813284  0.580485
			-0.218362 -0.834261 -0.506238
			-0.047219  0.832621  0.551779
			-0.488785 -0.763625 -0.421799
			-0.261197 -0.723248 -0.639258
			-0.036735  0.805345  0.591634
			-0.346854 -0.627048 -0.697441
			-0.039018  0.811440  0.583115
			-0.035190  0.801177  0.597359
			-0.198700 -0.591018 -0.781772
			-0.035940  0.818902  0.572779
			-0.441365 -0.463339 -0.768420
			 0.097845  0.874707  0.474642
			 0.326145  0.818797  0.472393
			-0.432244 -0.081323 -0.898055
			 0.514932  0.770477  0.375731
			 0.481291  0.595890  0.642801
			-0.135965 -0.156612 -0.978231
			 0.595613  0.516001  0.615578
			 0.492682  0.492526  0.717374
			-0.178255  0.183253 -0.966740
			 0.493703  0.491644  0.717308
			-0.210040  0.514877 -0.831110
			 0.473695  0.155149  0.866897
			-0.231865  0.553787 -0.799701
			 0.629230 -0.014328  0.777032
			-0.417664  0.376612 -0.826842
			 0.596557 -0.136187  0.790910
			-0.583328  0.325500 -0.744145
			 0.549661 -0.280509  0.786847
			-0.354157  0.363622 -0.861576
			-0.218362  0.591851 -0.775868
			 0.545717 -0.380224  0.746710
			 0.546843 -0.561436  0.621024
			-0.214032  0.594144 -0.775315
			 0.389099 -0.630194  0.671874
			-0.161694  0.583325 -0.795954
			 0.212886 -0.567448  0.795394
			-0.204572  0.437092 -0.875801
			 0.214769 -0.614613  0.759001
			 0.210998 -0.836061  0.506390
			-0.125864 -0.158560 -0.979297
			 0.216211 -0.712995  0.666986
			 0.221325 -0.575357  0.787369
			-0.123456 -0.171835 -0.977359
			 0.298849 -0.582099  0.756191
			 0.452336 -0.725486  0.518653
			-0.123456 -0.171835 -0.977359
			 0.356653 -0.641755  0.678896
			 0.223613 -0.572364  0.788887
			-0.123456 -0.171835 -0.977359
			 0.212521 -0.559832  0.800874
			 0.214036 -0.594139  0.775344
			 0.024523 -0.771410 -0.635838
			 0.177544 -0.972827  0.148611
			 0.208419 -0.860926  0.464053
			 0.164648 -0.984947  0.052521
			 0.181697 -0.966291  0.182268
			-0.546807  0.717302 -0.431777
			-0.483282  0.849553  0.211305
			-0.577270  0.438824 -0.688568
			-0.617848  0.782212 -0.079719
			-0.170087  0.962253  0.212327
			-0.749496  0.359139 -0.556083
			-0.260233  0.885443  0.385004
			-0.669489 -0.018917 -0.742538
			-0.134895  0.822090  0.553133
			-0.118997  0.963311  0.240444
			-0.635109 -0.377711 -0.673752
			-0.297150  0.770769  0.563497
			-0.020714  0.680591  0.732349
			-0.108421 -0.772587 -0.625550
			 0.001547 -0.707582 -0.706602
			-0.021918  0.763874  0.644959
			-0.285718 -0.647581 -0.706382
			-0.038984  0.811328  0.583223
			-0.039027  0.811464  0.583082
			-0.350243 -0.784095 -0.512314
			 0.123512  0.771948  0.623531
			-0.250647 -0.759626 -0.600051
			 0.250173  0.829294  0.499645
			-0.003787 -0.728958 -0.684521
			 0.239153  0.830453  0.503105
			-0.066894 -0.445563 -0.892730
			 0.525233  0.760687  0.381359
			 0.260609  0.818235  0.512355
			-0.122653 -0.176207 -0.976662
			 0.297480  0.769888  0.564573
			 0.390661  0.687182  0.612466
			-0.123456 -0.171835 -0.977359
			 0.425580  0.546124  0.721512
			-0.134287 -0.110811 -0.984704
			 0.487989  0.567036  0.663532
			-0.203356  0.421974 -0.883497
			 0.520289  0.139740  0.842459
			-0.213796  0.588213 -0.779899
			-0.214189  0.598123 -0.772229
			 0.487664  0.038714  0.872138
			-0.230250  0.559115 -0.796432
			 0.741504  0.149846  0.653954
			-0.476494  0.287289 -0.830882
			 0.495698 -0.218520  0.840513
			 0.416623 -0.449612  0.790093
			-0.561057  0.352195 -0.749083
			 0.397986 -0.567054  0.721103
			-0.411515  0.427809 -0.804738
			 0.292041 -0.583237  0.757957
			-0.218856  0.558764 -0.799885
			 0.213803 -0.566045  0.796146
			-0.220731  0.514680 -0.828445
			 0.275783 -0.591002  0.758040
			 0.483641 -0.765722  0.423907
			-0.165369  0.087013 -0.982367
			 0.239549 -0.660138  0.711920
			 0.390650 -0.672356  0.628731
			 0.256542 -0.580694  0.772604
			-0.123456 -0.171835 -0.977359
			 0.524399 -0.699634  0.485248
			 0.489621 -0.638722  0.593526
			-0.123456 -0.171835 -0.977359
			 0.252332 -0.592158  0.765236
			 0.213978 -0.592731  0.776423
			-0.123456 -0.171835 -0.977359
			 0.213852 -0.589551  0.778878
			-0.117764 -0.202572 -0.972132
			 0.212966 -0.569130  0.794175
			 0.174750 -0.976412  0.126799
			 0.177544 -0.972827  0.148611
			 0.214060 -0.594750  0.774875
			 0.061297 -0.866473 -0.495393
			 0.176968 -0.973592  0.144092
			 0.211697 -0.827928  0.519299
			-0.182355  0.965143 -0.187713
			-0.215778  0.653466 -0.725516
			-0.214691  0.943729  0.251411
			-0.151394  0.951970  0.266073
			-0.206154  0.457605 -0.864924
			-0.365824  0.865639  0.341743
			-0.061249  0.854677  0.515489
			-0.121867 -0.180492 -0.975977
			-0.038772  0.810781  0.584029
			 0.311393  0.914112  0.259578
			 0.097544  0.938918  0.329898
			 0.284255  0.689679  0.665974
			 0.000402 -0.697750 -0.716310
			 0.380744  0.668180  0.639149
			 0.024461 -0.771229 -0.636056
			 0.014198  0.723493  0.690141
			-0.050556 -0.513355 -0.856662
			-0.039717  0.813284  0.580485
			 0.050093  0.833084  0.550855
			 0.013210 -0.737944 -0.674692
			 0.037375 -0.807053 -0.589245
			 0.199837  0.682252  0.703267
			 0.046294 -0.830286 -0.555367
			 0.355182  0.663478  0.658491
			 0.334045  0.797452  0.502415
			-0.011739 -0.657385 -0.753427
			-0.116276 -0.210492 -0.970641
			 0.341493  0.811209  0.474633
			 0.177025  0.815528  0.550953
			-0.123456 -0.171835 -0.977359
			 0.420373  0.690438  0.588658
			 0.441308  0.668945  0.598111
			-0.124852 -0.164129 -0.978476
			 0.494872  0.550886  0.671988
			-0.178255  0.183253 -0.966740
			 0.472874  0.364544  0.802171
			-0.210040  0.514877 -0.831110
			 0.750646  0.166992  0.639195
			-0.212427  0.558022 -0.802133
			 0.591871 -0.068948  0.803049
			-0.213318  0.576948 -0.788404
			 0.624420  0.018012  0.780835
			-0.213338  0.577347 -0.788124
			 0.574446 -0.142575  0.805989
			-0.352137  0.514961 -0.781519
			 0.370991 -0.353815  0.858565
			-0.378924  0.340433 -0.860511
			 0.221691 -0.562669  0.796377
			-0.500973  0.274208 -0.820855
			 0.229880 -0.599811  0.766380
			-0.346621  0.433427 -0.831828
			 0.565013 -0.621263  0.542912
			 0.430803 -0.630629  0.645514
			-0.204572  0.437092 -0.875801
			 0.601391 -0.619816  0.504083
			 0.392030 -0.626124  0.673951
			-0.125864 -0.158560 -0.979297
			 0.595298 -0.582562  0.553360
			 0.225194 -0.627239  0.745519
			 0.390691 -0.617456  0.682704
			 0.475567 -0.698928  0.534142
			-0.123456 -0.171835 -0.977359
			 0.214318 -0.601676  0.769410
			-0.123456 -0.171835 -0.977359
			 0.212517 -0.559837  0.800844
			 0.212861 -0.566946  0.795749
			-0.123456 -0.171835 -0.977359
			 0.212521 -0.559832  0.800874
			 0.214036 -0.594139  0.775344
			 0.024523 -0.771410 -0.635838
			 0.177544 -0.972827  0.148611
			 0.208419 -0.860926  0.464053
			 0.164648 -0.984947  0.052521
			 0.181697 -0.966291  0.182268
			-0.216211  0.712300 -0.667702
			-0.202104  0.972493 -0.115810
			-0.210816  0.527899 -0.822722
			-0.180223  0.968793 -0.170135
			-0.253303  0.861259  0.440470
			-0.091271  0.820801  0.563831
			-0.171316  0.130045 -0.976587
			-0.043519  0.807324  0.588470
			-0.035067  0.819402  0.572110
			-0.019684 -0.629783 -0.776491
			 0.078832  0.869515  0.487522
			 0.087197  0.791447  0.604933
			 0.036391 -0.804421 -0.592909
			 0.003083 -0.706365 -0.707808
			-0.042131  0.819612  0.571359
			-0.009202 -0.666015 -0.745866
			 0.135695  0.722304  0.678114
			 0.393153  0.720297  0.571439
			 0.025250 -0.773485 -0.633263